#LAMMPS data file

15849 atoms
14700 bonds

21 atom types
1 bond types

-500 500 xlo xhi
-500 500 ylo yhi
-500 500 zlo zhi

Atoms

  1  1  3 0.0 138.469000 127.016000 129.922000
  2  1  2 1.0 139.031000 123.984000 127.516000
  3  1  6 0.0 139.000000 125.500000 124.062000
  4  1 11 0.0 142.688000 126.359000 123.578000
  5  1  7 -1.0 144.750000 123.094000 123.312000
  6  1  2 1.0 143.969000 121.359000 120.094000
  7  1 16 0.0 146.781000 122.312000 118.297000
  8  1  8 0.0 148.281000 124.672000 116.062000
  9  1  2 1.0 150.875000 122.188000 115.102000
 10  1 14 0.0 151.562000 120.469000 111.938000
 11  1  8 0.0 151.438000 120.406000 108.375000
 12  1  8 0.0 151.281000 122.156000 105.148000
 13  1  3 0.0 150.312000 124.453000 102.652000
 14  1 15 0.0 150.062000 128.297000 102.312000
 15  1  8 0.0 150.250000 128.641000 98.628000
 16  1  8 0.0 148.562000 128.688000 95.523000
 17  1 14 0.0 146.375000 130.922000 93.430000
 18  1  8 0.0 145.438000 129.281000 90.172000
 19  1  3 0.0 143.281000 127.328000 88.047000
 20  1  6 0.0 139.969000 128.375000 86.609000
 21  1  8 0.0 138.531000 125.812000 84.281000
 22  1  8 0.0 135.375000 124.469000 83.328000
 23  1 14 0.0 131.734000 123.484000 83.703000
 24  1  8 0.0 130.984000 120.594000 81.219000
 25  1  3 0.0 131.406000 117.047000 80.031000
 26  1 16 0.0 129.953000 113.734000 80.031000
 27  1  2 1.0 126.359000 112.812000 80.109000
 28  1  8 0.0 126.453000 110.266000 77.516000
 29  1  8 0.0 126.891000 106.754000 76.594000
 30  1  8 0.0 124.703000 103.721000 76.781000
 31  1  1 0.0 124.016000 100.109000 77.672000
 32  1  8 0.0 125.109000 96.852000 79.016000
 33  1 11 0.0 123.156000 94.172000 80.812000
 34  1  8 0.0 124.969000 91.516000 82.719000
 35  1  3 0.0 125.062000 89.648000 85.820000
 36  1  3 0.0 124.406000 89.734000 89.344000
 37  1  6 0.0 121.891000 86.867000 89.328000
 38  1  8 0.0 123.250000 84.969000 92.191000
 39  1 16 0.0 122.609000 85.922000 95.730000
 40  1  3 0.0 119.578000 84.359000 97.301000
 41  1 13 0.0 117.641000 86.672000 99.471000
 42  1  8 0.0 115.305000 89.445000 98.706000
 43  1  8 0.0 114.781000 91.078000 95.332000
 44  1  8 0.0 111.672000 93.121000 95.449000
 45  1 13 0.0 108.797000 91.898000 93.367000
 46  1  3 0.0 109.641000 93.547000 89.930000
 47  1 14 0.0 106.449000 95.773000 89.422000
 48  1  8 0.0 108.016000 96.557000 86.039000
 49  1  1 0.0 106.758000 93.312000 84.422000
 50  1 14 0.0 103.061000 94.062000 85.023000
 51  1 16 0.0 102.150000 97.523000 83.766000
 52  1 10 0.0 100.612000 97.697000 87.219000
 53  1  3 0.0 99.806000 101.506000 87.625000
 54  1 15 0.0 101.711000 102.740000 90.789000
 55  1  1 0.0 98.506000 104.531000 91.648000
 56  1 13 0.0 96.689000 101.433000 92.605000
 57  1 13 0.0 99.444000 100.143000 94.707000
 58  1  1 0.0 99.483000 103.416000 96.594000
 59  1  1 0.0 95.781000 103.002000 97.516000
 60  1  1 0.0 96.473000 99.690000 99.350000
 61  1  6 0.0 98.935000 101.595000 101.541000
 62  1  1 0.0 96.494000 104.363000 102.436000
 63  1  1 0.0 93.809000 101.966000 103.863000
 64  1 11 0.0 96.236000 100.343000 106.395000
 65  1  6 0.0 97.051000 103.834000 107.965000
 66  1 16 0.0 93.277000 104.414000 108.336000
 67  1 16 0.0 92.941000 101.520000 110.820000
 68  1 18 0.0 94.207000 103.355000 113.930000
 69  1  8 0.0 91.961000 106.383000 113.781000
 70  1 13 0.0 88.516000 104.914000 113.117000
 71  1 13 0.0 88.820000 102.279000 115.852000
 72  1  8 0.0 89.812000 105.000000 118.281000
 73  1 13 0.0 86.742000 107.160000 117.734000
 74  1 11 0.0 84.539000 104.375000 119.000000
 75  1  1 0.0 86.562000 104.172000 122.266000
 76  1 16 0.0 85.961000 107.953000 122.594000
 77  1  6 0.0 82.188000 107.316000 122.000000
 78  1  6 0.0 81.859000 104.766000 124.812000
 79  1  3 0.0 82.516000 107.672000 127.203000
 80  1  6 0.0 79.891000 110.102000 126.078000
 81  1 16 0.0 76.688000 109.227000 127.703000
 82  1  8 0.0 75.328000 112.672000 127.734000
 83  1 15 0.0 75.094000 116.422000 126.469000
 84  1 16 0.0 78.688000 118.094000 125.969000
 85  1  8 0.0 78.844000 120.250000 129.078000
 86  1  3 0.0 82.047000 122.016000 129.922000
 87  1  3 0.0 85.625000 121.781000 131.219000
 88  1  6 0.0 88.383000 120.000000 132.844000
 89  1  3 0.0 91.992000 119.828000 132.625000
 90  1  6 0.0 94.523000 117.328000 131.312000
 91  1  8 0.0 96.631000 116.594000 134.312000
 92  1  3 0.0 97.088000 113.812000 136.594000
 93  1 13 0.0 97.793000 110.039000 135.844000
 94  1  6 0.0 98.513000 109.359000 139.625000
 95  1  2 1.0 98.379000 105.488000 140.219000
 96  1  7 -1.0 97.395000 104.664000 143.688000
 97  1 15 0.0 96.193000 101.126000 145.125000
 98  1  3 0.0 93.621000 100.435000 147.781000
 99  1  6 0.0 90.539000 99.083000 149.031000
100  1  1 0.0 87.164000 98.615000 150.062000
101  1 14 0.0 84.039000 96.812000 150.625000
102  1  8 0.0 81.000000 94.922000 149.938000
103  1 16 0.0 77.938000 93.609000 148.375000
104  1  8 0.0 76.344000 90.422000 147.969000
105  1  3 0.0 75.125000 87.258000 146.375000
106  1  3 0.0 72.578000 85.727000 144.000000
107  1 16 0.0 72.391000 82.219000 143.219000
108  1 19 0.0 72.094000 79.500000 140.594000
109  1 16 0.0 69.844000 78.922000 137.562000
110  1  8 0.0 70.688000 76.344000 135.094000
111  1 16 0.0 70.594000 76.000000 131.422000
112  1  3 0.0 72.656000 73.844000 129.328000
113  1 16 0.0 76.062000 72.875000 128.297000
114  1  8 0.0 75.859000 72.812000 124.578000
115  1  1 0.0 78.891000 72.609000 122.609000
116  1  1 0.0 80.891000 74.141000 120.031000
117  1 10 0.0 84.305000 75.578000 120.594000
118  1  8 0.0 85.070000 74.906000 116.797000
119  1 18 0.0 84.312000 76.359000 113.188000
120  1  8 0.0 80.969000 74.672000 112.531000
121  1 16 0.0 77.953000 75.703000 114.680000
122  1  1 0.0 75.172000 74.281000 112.328000
123  1 16 0.0 72.156000 76.078000 113.672000
124  1  3 0.0 69.406000 73.547000 113.148000
125  1  1 0.0 66.625000 75.844000 111.898000
126  1  8 0.0 64.438000 74.078000 109.672000
127  1 16 0.0 63.438000 72.188000 106.656000
128  1  8 0.0 63.969000 71.125000 103.213000
129  1 16 0.0 65.906000 69.625000 100.533000
130  1  8 0.0 68.672000 67.250000 99.940000
131  1 14 0.0 71.859000 67.062000 97.963000
132  1  3 0.0 71.203000 67.719000 94.168000
133  1  8 0.0 73.812000 65.219000 92.863000
134  1  8 0.0 73.438000 65.188000 89.188000
135  1 14 0.0 76.109000 64.688000 86.430000
136  1  8 0.0 73.719000 65.094000 83.594000
137  1 16 0.0 75.016000 65.469000 79.984000
138  1 16 0.0 74.141000 68.375000 77.812000
139  1 13 0.0 77.172000 68.219000 75.438000
140  1  4 -1.0 75.000000 68.359000 72.406000
141  1 16 0.0 75.828000 71.594000 70.609000
142  1 12 1.0 77.625000 70.344000 67.406000
143  1 16 0.0 77.500000 73.109000 64.969000
144  1 16 0.0 79.891000 74.281000 62.594000
145  1  8 0.0 82.719000 73.750000 60.500000
146  1 18 0.0 86.438000 72.797000 60.062000
147  1  8 0.0 87.016000 74.531000 56.781000
148  1 13 0.0 89.938000 76.891000 55.969000
149  2  3 0.0 338.469000 127.016000 129.922000
150  2  2 1.0 339.031000 123.984000 127.516000
151  2  6 0.0 339.000000 125.500000 124.062000
152  2 11 0.0 342.688000 126.359000 123.578000
153  2  7 -1.0 344.750000 123.094000 123.312000
154  2  2 1.0 343.969000 121.359000 120.094000
155  2 16 0.0 346.781000 122.312000 118.297000
156  2  8 0.0 348.281000 124.672000 116.062000
157  2  2 1.0 350.875000 122.188000 115.102000
158  2 14 0.0 351.562000 120.469000 111.938000
159  2  8 0.0 351.438000 120.406000 108.375000
160  2  8 0.0 351.281000 122.156000 105.148000
161  2  3 0.0 350.312000 124.453000 102.652000
162  2 15 0.0 350.062000 128.297000 102.312000
163  2  8 0.0 350.250000 128.641000 98.628000
164  2  8 0.0 348.562000 128.688000 95.523000
165  2 14 0.0 346.375000 130.922000 93.430000
166  2  8 0.0 345.438000 129.281000 90.172000
167  2  3 0.0 343.281000 127.328000 88.047000
168  2  6 0.0 339.969000 128.375000 86.609000
169  2  8 0.0 338.531000 125.812000 84.281000
170  2  8 0.0 335.375000 124.469000 83.328000
171  2 14 0.0 331.734000 123.484000 83.703000
172  2  8 0.0 330.984000 120.594000 81.219000
173  2  3 0.0 331.406000 117.047000 80.031000
174  2 16 0.0 329.953000 113.734000 80.031000
175  2  2 1.0 326.359000 112.812000 80.109000
176  2  8 0.0 326.453000 110.266000 77.516000
177  2  8 0.0 326.891000 106.754000 76.594000
178  2  8 0.0 324.703000 103.721000 76.781000
179  2  1 0.0 324.016000 100.109000 77.672000
180  2  8 0.0 325.109000 96.852000 79.016000
181  2 11 0.0 323.156000 94.172000 80.812000
182  2  8 0.0 324.969000 91.516000 82.719000
183  2  3 0.0 325.062000 89.648000 85.820000
184  2  3 0.0 324.406000 89.734000 89.344000
185  2  6 0.0 321.891000 86.867000 89.328000
186  2  8 0.0 323.250000 84.969000 92.191000
187  2 16 0.0 322.609000 85.922000 95.730000
188  2  3 0.0 319.578000 84.359000 97.301000
189  2 13 0.0 317.641000 86.672000 99.471000
190  2  8 0.0 315.305000 89.445000 98.706000
191  2  8 0.0 314.781000 91.078000 95.332000
192  2  8 0.0 311.672000 93.121000 95.449000
193  2 13 0.0 308.797000 91.898000 93.367000
194  2  3 0.0 309.641000 93.547000 89.930000
195  2 14 0.0 306.449000 95.773000 89.422000
196  2  8 0.0 308.016000 96.557000 86.039000
197  2  1 0.0 306.758000 93.312000 84.422000
198  2 14 0.0 303.061000 94.062000 85.023000
199  2 16 0.0 302.150000 97.523000 83.766000
200  2 10 0.0 300.612000 97.697000 87.219000
201  2  3 0.0 299.806000 101.506000 87.625000
202  2 15 0.0 301.711000 102.740000 90.789000
203  2  1 0.0 298.506000 104.531000 91.648000
204  2 13 0.0 296.689000 101.433000 92.605000
205  2 13 0.0 299.444000 100.143000 94.707000
206  2  1 0.0 299.483000 103.416000 96.594000
207  2  1 0.0 295.781000 103.002000 97.516000
208  2  1 0.0 296.473000 99.690000 99.350000
209  2  6 0.0 298.935000 101.595000 101.541000
210  2  1 0.0 296.494000 104.363000 102.436000
211  2  1 0.0 293.809000 101.966000 103.863000
212  2 11 0.0 296.236000 100.343000 106.395000
213  2  6 0.0 297.051000 103.834000 107.965000
214  2 16 0.0 293.277000 104.414000 108.336000
215  2 16 0.0 292.941000 101.520000 110.820000
216  2 18 0.0 294.207000 103.355000 113.930000
217  2  8 0.0 291.961000 106.383000 113.781000
218  2 13 0.0 288.516000 104.914000 113.117000
219  2 13 0.0 288.820000 102.279000 115.852000
220  2  8 0.0 289.812000 105.000000 118.281000
221  2 13 0.0 286.742000 107.160000 117.734000
222  2 11 0.0 284.539000 104.375000 119.000000
223  2  1 0.0 286.562000 104.172000 122.266000
224  2 16 0.0 285.961000 107.953000 122.594000
225  2  6 0.0 282.188000 107.316000 122.000000
226  2  6 0.0 281.859000 104.766000 124.812000
227  2  3 0.0 282.516000 107.672000 127.203000
228  2  6 0.0 279.891000 110.102000 126.078000
229  2 16 0.0 276.688000 109.227000 127.703000
230  2  8 0.0 275.328000 112.672000 127.734000
231  2 15 0.0 275.094000 116.422000 126.469000
232  2 16 0.0 278.688000 118.094000 125.969000
233  2  8 0.0 278.844000 120.250000 129.078000
234  2  3 0.0 282.047000 122.016000 129.922000
235  2  3 0.0 285.625000 121.781000 131.219000
236  2  6 0.0 288.383000 120.000000 132.844000
237  2  3 0.0 291.992000 119.828000 132.625000
238  2  6 0.0 294.523000 117.328000 131.312000
239  2  8 0.0 296.631000 116.594000 134.312000
240  2  3 0.0 297.088000 113.812000 136.594000
241  2 13 0.0 297.793000 110.039000 135.844000
242  2  6 0.0 298.513000 109.359000 139.625000
243  2  2 1.0 298.379000 105.488000 140.219000
244  2  7 -1.0 297.395000 104.664000 143.688000
245  2 15 0.0 296.193000 101.126000 145.125000
246  2  3 0.0 293.621000 100.435000 147.781000
247  2  6 0.0 290.539000 99.083000 149.031000
248  2  1 0.0 287.164000 98.615000 150.062000
249  2 14 0.0 284.039000 96.812000 150.625000
250  2  8 0.0 281.000000 94.922000 149.938000
251  2 16 0.0 277.938000 93.609000 148.375000
252  2  8 0.0 276.344000 90.422000 147.969000
253  2  3 0.0 275.125000 87.258000 146.375000
254  2  3 0.0 272.578000 85.727000 144.000000
255  2 16 0.0 272.391000 82.219000 143.219000
256  2 19 0.0 272.094000 79.500000 140.594000
257  2 16 0.0 269.844000 78.922000 137.562000
258  2  8 0.0 270.688000 76.344000 135.094000
259  2 16 0.0 270.594000 76.000000 131.422000
260  2  3 0.0 272.656000 73.844000 129.328000
261  2 16 0.0 276.062000 72.875000 128.297000
262  2  8 0.0 275.859000 72.812000 124.578000
263  2  1 0.0 278.891000 72.609000 122.609000
264  2  1 0.0 280.891000 74.141000 120.031000
265  2 10 0.0 284.305000 75.578000 120.594000
266  2  8 0.0 285.070000 74.906000 116.797000
267  2 18 0.0 284.312000 76.359000 113.188000
268  2  8 0.0 280.969000 74.672000 112.531000
269  2 16 0.0 277.953000 75.703000 114.680000
270  2  1 0.0 275.172000 74.281000 112.328000
271  2 16 0.0 272.156000 76.078000 113.672000
272  2  3 0.0 269.406000 73.547000 113.148000
273  2  1 0.0 266.625000 75.844000 111.898000
274  2  8 0.0 264.438000 74.078000 109.672000
275  2 16 0.0 263.438000 72.188000 106.656000
276  2  8 0.0 263.969000 71.125000 103.213000
277  2 16 0.0 265.906000 69.625000 100.533000
278  2  8 0.0 268.672000 67.250000 99.940000
279  2 14 0.0 271.859000 67.062000 97.963000
280  2  3 0.0 271.203000 67.719000 94.168000
281  2  8 0.0 273.812000 65.219000 92.863000
282  2  8 0.0 273.438000 65.188000 89.188000
283  2 14 0.0 276.109000 64.688000 86.430000
284  2  8 0.0 273.719000 65.094000 83.594000
285  2 16 0.0 275.016000 65.469000 79.984000
286  2 16 0.0 274.141000 68.375000 77.812000
287  2 13 0.0 277.172000 68.219000 75.438000
288  2  4 -1.0 275.000000 68.359000 72.406000
289  2 16 0.0 275.828000 71.594000 70.609000
290  2 12 1.0 277.625000 70.344000 67.406000
291  2 16 0.0 277.500000 73.109000 64.969000
292  2 16 0.0 279.891000 74.281000 62.594000
293  2  8 0.0 282.719000 73.750000 60.500000
294  2 18 0.0 286.438000 72.797000 60.062000
295  2  8 0.0 287.016000 74.531000 56.781000
296  2 13 0.0 289.938000 76.891000 55.969000
297  3  3 0.0 538.469000 127.016000 129.922000
298  3  2 1.0 539.031000 123.984000 127.516000
299  3  6 0.0 539.000000 125.500000 124.062000
300  3 11 0.0 542.688000 126.359000 123.578000
301  3  7 -1.0 544.750000 123.094000 123.312000
302  3  2 1.0 543.969000 121.359000 120.094000
303  3 16 0.0 546.781000 122.312000 118.297000
304  3  8 0.0 548.281000 124.672000 116.062000
305  3  2 1.0 550.875000 122.188000 115.102000
306  3 14 0.0 551.562000 120.469000 111.938000
307  3  8 0.0 551.438000 120.406000 108.375000
308  3  8 0.0 551.281000 122.156000 105.148000
309  3  3 0.0 550.312000 124.453000 102.652000
310  3 15 0.0 550.062000 128.297000 102.312000
311  3  8 0.0 550.250000 128.641000 98.628000
312  3  8 0.0 548.562000 128.688000 95.523000
313  3 14 0.0 546.375000 130.922000 93.430000
314  3  8 0.0 545.438000 129.281000 90.172000
315  3  3 0.0 543.281000 127.328000 88.047000
316  3  6 0.0 539.969000 128.375000 86.609000
317  3  8 0.0 538.531000 125.812000 84.281000
318  3  8 0.0 535.375000 124.469000 83.328000
319  3 14 0.0 531.734000 123.484000 83.703000
320  3  8 0.0 530.984000 120.594000 81.219000
321  3  3 0.0 531.406000 117.047000 80.031000
322  3 16 0.0 529.953000 113.734000 80.031000
323  3  2 1.0 526.359000 112.812000 80.109000
324  3  8 0.0 526.453000 110.266000 77.516000
325  3  8 0.0 526.891000 106.754000 76.594000
326  3  8 0.0 524.703000 103.721000 76.781000
327  3  1 0.0 524.016000 100.109000 77.672000
328  3  8 0.0 525.109000 96.852000 79.016000
329  3 11 0.0 523.156000 94.172000 80.812000
330  3  8 0.0 524.969000 91.516000 82.719000
331  3  3 0.0 525.062000 89.648000 85.820000
332  3  3 0.0 524.406000 89.734000 89.344000
333  3  6 0.0 521.891000 86.867000 89.328000
334  3  8 0.0 523.250000 84.969000 92.191000
335  3 16 0.0 522.609000 85.922000 95.730000
336  3  3 0.0 519.578000 84.359000 97.301000
337  3 13 0.0 517.641000 86.672000 99.471000
338  3  8 0.0 515.305000 89.445000 98.706000
339  3  8 0.0 514.781000 91.078000 95.332000
340  3  8 0.0 511.672000 93.121000 95.449000
341  3 13 0.0 508.797000 91.898000 93.367000
342  3  3 0.0 509.641000 93.547000 89.930000
343  3 14 0.0 506.449000 95.773000 89.422000
344  3  8 0.0 508.016000 96.557000 86.039000
345  3  1 0.0 506.758000 93.312000 84.422000
346  3 14 0.0 503.061000 94.062000 85.023000
347  3 16 0.0 502.150000 97.523000 83.766000
348  3 10 0.0 500.612000 97.697000 87.219000
349  3  3 0.0 499.806000 101.506000 87.625000
350  3 15 0.0 501.711000 102.740000 90.789000
351  3  1 0.0 498.506000 104.531000 91.648000
352  3 13 0.0 496.689000 101.433000 92.605000
353  3 13 0.0 499.444000 100.143000 94.707000
354  3  1 0.0 499.483000 103.416000 96.594000
355  3  1 0.0 495.781000 103.002000 97.516000
356  3  1 0.0 496.473000 99.690000 99.350000
357  3  6 0.0 498.935000 101.595000 101.541000
358  3  1 0.0 496.494000 104.363000 102.436000
359  3  1 0.0 493.809000 101.966000 103.863000
360  3 11 0.0 496.236000 100.343000 106.395000
361  3  6 0.0 497.051000 103.834000 107.965000
362  3 16 0.0 493.277000 104.414000 108.336000
363  3 16 0.0 492.941000 101.520000 110.820000
364  3 18 0.0 494.207000 103.355000 113.930000
365  3  8 0.0 491.961000 106.383000 113.781000
366  3 13 0.0 488.516000 104.914000 113.117000
367  3 13 0.0 488.820000 102.279000 115.852000
368  3  8 0.0 489.812000 105.000000 118.281000
369  3 13 0.0 486.742000 107.160000 117.734000
370  3 11 0.0 484.539000 104.375000 119.000000
371  3  1 0.0 486.562000 104.172000 122.266000
372  3 16 0.0 485.961000 107.953000 122.594000
373  3  6 0.0 482.188000 107.316000 122.000000
374  3  6 0.0 481.859000 104.766000 124.812000
375  3  3 0.0 482.516000 107.672000 127.203000
376  3  6 0.0 479.891000 110.102000 126.078000
377  3 16 0.0 476.688000 109.227000 127.703000
378  3  8 0.0 475.328000 112.672000 127.734000
379  3 15 0.0 475.094000 116.422000 126.469000
380  3 16 0.0 478.688000 118.094000 125.969000
381  3  8 0.0 478.844000 120.250000 129.078000
382  3  3 0.0 482.047000 122.016000 129.922000
383  3  3 0.0 485.625000 121.781000 131.219000
384  3  6 0.0 488.383000 120.000000 132.844000
385  3  3 0.0 491.992000 119.828000 132.625000
386  3  6 0.0 494.523000 117.328000 131.312000
387  3  8 0.0 496.631000 116.594000 134.312000
388  3  3 0.0 497.088000 113.812000 136.594000
389  3 13 0.0 497.793000 110.039000 135.844000
390  3  6 0.0 498.513000 109.359000 139.625000
391  3  2 1.0 498.379000 105.488000 140.219000
392  3  7 -1.0 497.395000 104.664000 143.688000
393  3 15 0.0 496.193000 101.126000 145.125000
394  3  3 0.0 493.621000 100.435000 147.781000
395  3  6 0.0 490.539000 99.083000 149.031000
396  3  1 0.0 487.164000 98.615000 150.062000
397  3 14 0.0 484.039000 96.812000 150.625000
398  3  8 0.0 481.000000 94.922000 149.938000
399  3 16 0.0 477.938000 93.609000 148.375000
400  3  8 0.0 476.344000 90.422000 147.969000
401  3  3 0.0 475.125000 87.258000 146.375000
402  3  3 0.0 472.578000 85.727000 144.000000
403  3 16 0.0 472.391000 82.219000 143.219000
404  3 19 0.0 472.094000 79.500000 140.594000
405  3 16 0.0 469.844000 78.922000 137.562000
406  3  8 0.0 470.688000 76.344000 135.094000
407  3 16 0.0 470.594000 76.000000 131.422000
408  3  3 0.0 472.656000 73.844000 129.328000
409  3 16 0.0 476.062000 72.875000 128.297000
410  3  8 0.0 475.859000 72.812000 124.578000
411  3  1 0.0 478.891000 72.609000 122.609000
412  3  1 0.0 480.891000 74.141000 120.031000
413  3 10 0.0 484.305000 75.578000 120.594000
414  3  8 0.0 485.070000 74.906000 116.797000
415  3 18 0.0 484.312000 76.359000 113.188000
416  3  8 0.0 480.969000 74.672000 112.531000
417  3 16 0.0 477.953000 75.703000 114.680000
418  3  1 0.0 475.172000 74.281000 112.328000
419  3 16 0.0 472.156000 76.078000 113.672000
420  3  3 0.0 469.406000 73.547000 113.148000
421  3  1 0.0 466.625000 75.844000 111.898000
422  3  8 0.0 464.438000 74.078000 109.672000
423  3 16 0.0 463.438000 72.188000 106.656000
424  3  8 0.0 463.969000 71.125000 103.213000
425  3 16 0.0 465.906000 69.625000 100.533000
426  3  8 0.0 468.672000 67.250000 99.940000
427  3 14 0.0 471.859000 67.062000 97.963000
428  3  3 0.0 471.203000 67.719000 94.168000
429  3  8 0.0 473.812000 65.219000 92.863000
430  3  8 0.0 473.438000 65.188000 89.188000
431  3 14 0.0 476.109000 64.688000 86.430000
432  3  8 0.0 473.719000 65.094000 83.594000
433  3 16 0.0 475.016000 65.469000 79.984000
434  3 16 0.0 474.141000 68.375000 77.812000
435  3 13 0.0 477.172000 68.219000 75.438000
436  3  4 -1.0 475.000000 68.359000 72.406000
437  3 16 0.0 475.828000 71.594000 70.609000
438  3 12 1.0 477.625000 70.344000 67.406000
439  3 16 0.0 477.500000 73.109000 64.969000
440  3 16 0.0 479.891000 74.281000 62.594000
441  3  8 0.0 482.719000 73.750000 60.500000
442  3 18 0.0 486.438000 72.797000 60.062000
443  3  8 0.0 487.016000 74.531000 56.781000
444  3 13 0.0 489.938000 76.891000 55.969000
445  4  3 0.0 738.469000 127.016000 129.922000
446  4  2 1.0 739.031000 123.984000 127.516000
447  4  6 0.0 739.000000 125.500000 124.062000
448  4 11 0.0 742.688000 126.359000 123.578000
449  4  7 -1.0 744.750000 123.094000 123.312000
450  4  2 1.0 743.969000 121.359000 120.094000
451  4 16 0.0 746.781000 122.312000 118.297000
452  4  8 0.0 748.281000 124.672000 116.062000
453  4  2 1.0 750.875000 122.188000 115.102000
454  4 14 0.0 751.562000 120.469000 111.938000
455  4  8 0.0 751.438000 120.406000 108.375000
456  4  8 0.0 751.281000 122.156000 105.148000
457  4  3 0.0 750.312000 124.453000 102.652000
458  4 15 0.0 750.062000 128.297000 102.312000
459  4  8 0.0 750.250000 128.641000 98.628000
460  4  8 0.0 748.562000 128.688000 95.523000
461  4 14 0.0 746.375000 130.922000 93.430000
462  4  8 0.0 745.438000 129.281000 90.172000
463  4  3 0.0 743.281000 127.328000 88.047000
464  4  6 0.0 739.969000 128.375000 86.609000
465  4  8 0.0 738.531000 125.812000 84.281000
466  4  8 0.0 735.375000 124.469000 83.328000
467  4 14 0.0 731.734000 123.484000 83.703000
468  4  8 0.0 730.984000 120.594000 81.219000
469  4  3 0.0 731.406000 117.047000 80.031000
470  4 16 0.0 729.953000 113.734000 80.031000
471  4  2 1.0 726.359000 112.812000 80.109000
472  4  8 0.0 726.453000 110.266000 77.516000
473  4  8 0.0 726.891000 106.754000 76.594000
474  4  8 0.0 724.703000 103.721000 76.781000
475  4  1 0.0 724.016000 100.109000 77.672000
476  4  8 0.0 725.109000 96.852000 79.016000
477  4 11 0.0 723.156000 94.172000 80.812000
478  4  8 0.0 724.969000 91.516000 82.719000
479  4  3 0.0 725.062000 89.648000 85.820000
480  4  3 0.0 724.406000 89.734000 89.344000
481  4  6 0.0 721.891000 86.867000 89.328000
482  4  8 0.0 723.250000 84.969000 92.191000
483  4 16 0.0 722.609000 85.922000 95.730000
484  4  3 0.0 719.578000 84.359000 97.301000
485  4 13 0.0 717.641000 86.672000 99.471000
486  4  8 0.0 715.305000 89.445000 98.706000
487  4  8 0.0 714.781000 91.078000 95.332000
488  4  8 0.0 711.672000 93.121000 95.449000
489  4 13 0.0 708.797000 91.898000 93.367000
490  4  3 0.0 709.641000 93.547000 89.930000
491  4 14 0.0 706.449000 95.773000 89.422000
492  4  8 0.0 708.016000 96.557000 86.039000
493  4  1 0.0 706.758000 93.312000 84.422000
494  4 14 0.0 703.061000 94.062000 85.023000
495  4 16 0.0 702.150000 97.523000 83.766000
496  4 10 0.0 700.612000 97.697000 87.219000
497  4  3 0.0 699.806000 101.506000 87.625000
498  4 15 0.0 701.711000 102.740000 90.789000
499  4  1 0.0 698.506000 104.531000 91.648000
500  4 13 0.0 696.689000 101.433000 92.605000
501  4 13 0.0 699.444000 100.143000 94.707000
502  4  1 0.0 699.483000 103.416000 96.594000
503  4  1 0.0 695.781000 103.002000 97.516000
504  4  1 0.0 696.473000 99.690000 99.350000
505  4  6 0.0 698.935000 101.595000 101.541000
506  4  1 0.0 696.494000 104.363000 102.436000
507  4  1 0.0 693.809000 101.966000 103.863000
508  4 11 0.0 696.236000 100.343000 106.395000
509  4  6 0.0 697.051000 103.834000 107.965000
510  4 16 0.0 693.277000 104.414000 108.336000
511  4 16 0.0 692.941000 101.520000 110.820000
512  4 18 0.0 694.207000 103.355000 113.930000
513  4  8 0.0 691.961000 106.383000 113.781000
514  4 13 0.0 688.516000 104.914000 113.117000
515  4 13 0.0 688.820000 102.279000 115.852000
516  4  8 0.0 689.812000 105.000000 118.281000
517  4 13 0.0 686.742000 107.160000 117.734000
518  4 11 0.0 684.539000 104.375000 119.000000
519  4  1 0.0 686.562000 104.172000 122.266000
520  4 16 0.0 685.961000 107.953000 122.594000
521  4  6 0.0 682.188000 107.316000 122.000000
522  4  6 0.0 681.859000 104.766000 124.812000
523  4  3 0.0 682.516000 107.672000 127.203000
524  4  6 0.0 679.891000 110.102000 126.078000
525  4 16 0.0 676.688000 109.227000 127.703000
526  4  8 0.0 675.328000 112.672000 127.734000
527  4 15 0.0 675.094000 116.422000 126.469000
528  4 16 0.0 678.688000 118.094000 125.969000
529  4  8 0.0 678.844000 120.250000 129.078000
530  4  3 0.0 682.047000 122.016000 129.922000
531  4  3 0.0 685.625000 121.781000 131.219000
532  4  6 0.0 688.383000 120.000000 132.844000
533  4  3 0.0 691.992000 119.828000 132.625000
534  4  6 0.0 694.523000 117.328000 131.312000
535  4  8 0.0 696.631000 116.594000 134.312000
536  4  3 0.0 697.088000 113.812000 136.594000
537  4 13 0.0 697.793000 110.039000 135.844000
538  4  6 0.0 698.513000 109.359000 139.625000
539  4  2 1.0 698.379000 105.488000 140.219000
540  4  7 -1.0 697.395000 104.664000 143.688000
541  4 15 0.0 696.193000 101.126000 145.125000
542  4  3 0.0 693.621000 100.435000 147.781000
543  4  6 0.0 690.539000 99.083000 149.031000
544  4  1 0.0 687.164000 98.615000 150.062000
545  4 14 0.0 684.039000 96.812000 150.625000
546  4  8 0.0 681.000000 94.922000 149.938000
547  4 16 0.0 677.938000 93.609000 148.375000
548  4  8 0.0 676.344000 90.422000 147.969000
549  4  3 0.0 675.125000 87.258000 146.375000
550  4  3 0.0 672.578000 85.727000 144.000000
551  4 16 0.0 672.391000 82.219000 143.219000
552  4 19 0.0 672.094000 79.500000 140.594000
553  4 16 0.0 669.844000 78.922000 137.562000
554  4  8 0.0 670.688000 76.344000 135.094000
555  4 16 0.0 670.594000 76.000000 131.422000
556  4  3 0.0 672.656000 73.844000 129.328000
557  4 16 0.0 676.062000 72.875000 128.297000
558  4  8 0.0 675.859000 72.812000 124.578000
559  4  1 0.0 678.891000 72.609000 122.609000
560  4  1 0.0 680.891000 74.141000 120.031000
561  4 10 0.0 684.305000 75.578000 120.594000
562  4  8 0.0 685.070000 74.906000 116.797000
563  4 18 0.0 684.312000 76.359000 113.188000
564  4  8 0.0 680.969000 74.672000 112.531000
565  4 16 0.0 677.953000 75.703000 114.680000
566  4  1 0.0 675.172000 74.281000 112.328000
567  4 16 0.0 672.156000 76.078000 113.672000
568  4  3 0.0 669.406000 73.547000 113.148000
569  4  1 0.0 666.625000 75.844000 111.898000
570  4  8 0.0 664.438000 74.078000 109.672000
571  4 16 0.0 663.438000 72.188000 106.656000
572  4  8 0.0 663.969000 71.125000 103.213000
573  4 16 0.0 665.906000 69.625000 100.533000
574  4  8 0.0 668.672000 67.250000 99.940000
575  4 14 0.0 671.859000 67.062000 97.963000
576  4  3 0.0 671.203000 67.719000 94.168000
577  4  8 0.0 673.812000 65.219000 92.863000
578  4  8 0.0 673.438000 65.188000 89.188000
579  4 14 0.0 676.109000 64.688000 86.430000
580  4  8 0.0 673.719000 65.094000 83.594000
581  4 16 0.0 675.016000 65.469000 79.984000
582  4 16 0.0 674.141000 68.375000 77.812000
583  4 13 0.0 677.172000 68.219000 75.438000
584  4  4 -1.0 675.000000 68.359000 72.406000
585  4 16 0.0 675.828000 71.594000 70.609000
586  4 12 1.0 677.625000 70.344000 67.406000
587  4 16 0.0 677.500000 73.109000 64.969000
588  4 16 0.0 679.891000 74.281000 62.594000
589  4  8 0.0 682.719000 73.750000 60.500000
590  4 18 0.0 686.438000 72.797000 60.062000
591  4  8 0.0 687.016000 74.531000 56.781000
592  4 13 0.0 689.938000 76.891000 55.969000
593  5  3 0.0 938.469000 127.016000 129.922000
594  5  2 1.0 939.031000 123.984000 127.516000
595  5  6 0.0 939.000000 125.500000 124.062000
596  5 11 0.0 942.688000 126.359000 123.578000
597  5  7 -1.0 944.750000 123.094000 123.312000
598  5  2 1.0 943.969000 121.359000 120.094000
599  5 16 0.0 946.781000 122.312000 118.297000
600  5  8 0.0 948.281000 124.672000 116.062000
601  5  2 1.0 950.875000 122.188000 115.102000
602  5 14 0.0 951.562000 120.469000 111.938000
603  5  8 0.0 951.438000 120.406000 108.375000
604  5  8 0.0 951.281000 122.156000 105.148000
605  5  3 0.0 950.312000 124.453000 102.652000
606  5 15 0.0 950.062000 128.297000 102.312000
607  5  8 0.0 950.250000 128.641000 98.628000
608  5  8 0.0 948.562000 128.688000 95.523000
609  5 14 0.0 946.375000 130.922000 93.430000
610  5  8 0.0 945.438000 129.281000 90.172000
611  5  3 0.0 943.281000 127.328000 88.047000
612  5  6 0.0 939.969000 128.375000 86.609000
613  5  8 0.0 938.531000 125.812000 84.281000
614  5  8 0.0 935.375000 124.469000 83.328000
615  5 14 0.0 931.734000 123.484000 83.703000
616  5  8 0.0 930.984000 120.594000 81.219000
617  5  3 0.0 931.406000 117.047000 80.031000
618  5 16 0.0 929.953000 113.734000 80.031000
619  5  2 1.0 926.359000 112.812000 80.109000
620  5  8 0.0 926.453000 110.266000 77.516000
621  5  8 0.0 926.891000 106.754000 76.594000
622  5  8 0.0 924.703000 103.721000 76.781000
623  5  1 0.0 924.016000 100.109000 77.672000
624  5  8 0.0 925.109000 96.852000 79.016000
625  5 11 0.0 923.156000 94.172000 80.812000
626  5  8 0.0 924.969000 91.516000 82.719000
627  5  3 0.0 925.062000 89.648000 85.820000
628  5  3 0.0 924.406000 89.734000 89.344000
629  5  6 0.0 921.891000 86.867000 89.328000
630  5  8 0.0 923.250000 84.969000 92.191000
631  5 16 0.0 922.609000 85.922000 95.730000
632  5  3 0.0 919.578000 84.359000 97.301000
633  5 13 0.0 917.641000 86.672000 99.471000
634  5  8 0.0 915.305000 89.445000 98.706000
635  5  8 0.0 914.781000 91.078000 95.332000
636  5  8 0.0 911.672000 93.121000 95.449000
637  5 13 0.0 908.797000 91.898000 93.367000
638  5  3 0.0 909.641000 93.547000 89.930000
639  5 14 0.0 906.449000 95.773000 89.422000
640  5  8 0.0 908.016000 96.557000 86.039000
641  5  1 0.0 906.758000 93.312000 84.422000
642  5 14 0.0 903.061000 94.062000 85.023000
643  5 16 0.0 902.150000 97.523000 83.766000
644  5 10 0.0 900.612000 97.697000 87.219000
645  5  3 0.0 899.806000 101.506000 87.625000
646  5 15 0.0 901.711000 102.740000 90.789000
647  5  1 0.0 898.506000 104.531000 91.648000
648  5 13 0.0 896.689000 101.433000 92.605000
649  5 13 0.0 899.444000 100.143000 94.707000
650  5  1 0.0 899.483000 103.416000 96.594000