#LAMMPS data file

14905 atoms
14700 bonds

21 atom types
1 bond types

0 150 xlo xhi
0 150 ylo yhi
-250 250 zlo zhi

Atoms

  1  1  3 0.0 50.668800 68.791600 109.551000
  2  1  2 1.0 47.900200 69.440500 106.811000
  3  1  6 0.0 47.688300 73.030400 105.539000
  4  1 11 0.0 45.863900 75.864600 103.632000
  5  1  7 -1.0 44.032400 74.831400 100.462000
  6  1  2 1.0 41.695400 74.738900 97.454100
  7  1 16 0.0 41.977900 71.050600 95.971600
  8  1  8 0.0 42.711600 67.715300 94.266800
  9  1  2 1.0 45.495600 65.679500 92.315400
 10  1 14 0.0 47.967800 68.615400 92.318000
 11  1  8 0.0 46.526200 72.134900 92.495200
 12  1  8 0.0 47.854200 75.776700 93.040600
 13  1  3 0.0 47.839100 76.326100 89.320100
 14  1 15 0.0 44.838800 78.926700 89.196700
 15  1  8 0.0 42.347000 78.124000 91.846700
 16  1  8 0.0 38.986900 76.984600 90.542000
 17  1 14 0.0 38.075900 73.980700 88.196600
 18  1  8 0.0 36.166200 70.669900 87.561400
 19  1  3 0.0 32.370600 71.239700 86.489300
 20  1  6 0.0 30.425900 72.181900 89.742900
 21  1  8 0.0 29.306500 71.653000 92.927000
 22  1  8 0.0 28.990600 68.693000 95.411400
 23  1 14 0.0 31.832200 66.138200 94.937900
 24  1  8 0.0 29.559700 63.763000 93.103500
 25  1  3 0.0 26.823600 61.591400 94.262500
 26  1 16 0.0 26.098000 62.143100 97.809600
 27  1  2 1.0 26.764900 62.518600 101.586000
 28  1  8 0.0 23.863500 60.532100 103.128000
 29  1  8 0.0 21.316600 63.072900 103.955000
 30  1  8 0.0 20.092700 62.543900 100.519000
 31  1  1 0.0 19.684700 59.386200 98.362600
 32  1  8 0.0 18.136000 56.590600 96.478900
 33  1 11 0.0 19.305900 53.347000 97.621600
 34  1  8 0.0 18.476900 54.324500 101.290000
 35  1  3 0.0 21.376800 55.389400 103.488000
 36  1  3 0.0 20.199700 54.576000 107.276000
 37  1  6 0.0 17.402300 52.355900 107.080000
 38  1  8 0.0 14.117900 52.830700 109.107000
 39  1 16 0.0 12.809600 49.370000 109.893000
 40  1  3 0.0 14.834300 46.329900 109.567000
 41  1 13 0.0 14.560700 42.366600 109.726000
 42  1  8 0.0 17.015100 40.118300 107.788000
 43  1  8 0.0 20.543600 39.680900 108.880000
 44  1  8 0.0 19.285800 39.017000 112.420000
 45  1 13 0.0 17.784100 36.765700 115.143000
 46  1  3 0.0 17.770600 37.896800 118.683000
 47  1 14 0.0 18.953300 35.844400 121.589000
 48  1  8 0.0 22.001500 34.246900 122.719000
 49  1  1 0.0 24.014000 33.225000 125.722000
 50  1 14 0.0 24.932500 29.635500 124.997000
 51  1 16 0.0 28.391400 29.270000 126.397000
 52  1 10 0.0 31.863000 30.820600 126.730000
 53  1  3 0.0 30.824100 34.197900 125.049000
 54  1 15 0.0 29.288800 33.317900 121.581000
 55  1  1 0.0 31.356300 36.192700 120.276000
 56  1 13 0.0 34.588500 34.370600 120.540000
 57  1 13 0.0 33.303800 31.305000 118.912000
 58  1  1 0.0 32.115900 33.399700 115.998000
 59  1  1 0.0 35.670400 34.735900 115.429000
 60  1  1 0.0 37.049600 31.189900 114.846000
 61  1  6 0.0 34.512500 30.831200 112.029000
 62  1  1 0.0 35.470100 34.086000 110.321000
 63  1  1 0.0 39.207500 33.150500 109.933000
 64  1 11 0.0 38.453500 29.870200 108.034000
 65  1  6 0.0 36.433900 31.822100 105.310000
 66  1 16 0.0 39.456000 34.152600 104.911000
 67  1 16 0.0 41.653500 31.296900 103.613000
 68  1 18 0.0 40.367300 31.247300 100.009000
 69  1  8 0.0 40.810600 34.902500 99.178000
 70  1 13 0.0 44.305600 35.697000 100.454000
 71  1 13 0.0 45.888600 32.646100 98.805300
 72  1  8 0.0 44.266900 33.646400 95.536900
 73  1 13 0.0 45.741300 37.142700 95.414200
 74  1 11 0.0 49.218700 35.687400 95.294800
 75  1  1 0.0 49.733700 34.386700 91.605900
 76  1 16 0.0 51.587600 36.921800 89.308300
 77  1  6 0.0 55.152500 35.884700 89.822600
 78  1  6 0.0 58.461900 36.768500 88.264200
 79  1  3 0.0 60.311400 36.628600 84.972400
 80  1  6 0.0 62.317500 38.572000 82.467200
 81  1 16 0.0 64.432500 41.709300 82.693300
 82  1  8 0.0 66.351600 44.592200 84.147600
 83  1 15 0.0 70.010300 43.331800 83.540500
 84  1 16 0.0 73.560200 43.573700 82.168000
 85  1  8 0.0 72.422300 44.612100 78.657700
 86  1  3 0.0 69.899000 46.865400 77.644000
 87  1  3 0.0 69.639600 47.754800 74.124100
 88  1  6 0.0 70.081000 49.504100 70.693800
 89  1  3 0.0 67.426200 48.513400 68.505800
 90  1  6 0.0 66.296400 48.692200 64.932100
 91  1  8 0.0 66.148600 51.804300 62.369500
 92  1  3 0.0 64.728400 51.569900 58.866400
 93  1 13 0.0 65.629300 49.178800 56.037000
 94  1  6 0.0 67.801500 49.753600 52.912600
 95  1  2 1.0 69.402000 46.369400 51.573500
 96  1  7 -1.0 69.281100 46.589000 47.675800
 97  1 15 0.0 71.016900 44.648400 45.093000
 98  1  3 0.0 71.474100 41.219700 46.999400
 99  1  6 0.0 67.788800 40.373800 47.819500
100  1  1 0.0 65.163400 37.916700 46.269200
101  1 14 0.0 64.802400 35.870800 43.088200
102  1  8 0.0 61.985000 38.025400 42.162000
103  1 16 0.0 62.440300 41.702700 41.128500
104  1  8 0.0 62.324200 44.125400 43.920000
105  1  3 0.0 62.522600 45.436800 47.306200
106  1  3 0.0 60.508500 44.135900 50.152600
107  1 16 0.0 62.165200 42.890900 53.251000
108  1 19 0.0 61.959800 43.825000 56.845800
109  1 16 0.0 58.320600 43.453600 57.638600
110  1  8 0.0 56.250200 45.414300 55.524600
111  1 16 0.0 52.772500 45.219300 54.821100
112  1  3 0.0 51.392100 44.295600 58.107600
113  1 16 0.0 49.199300 41.602600 60.262900
114  1  8 0.0 46.266200 39.400000 58.636300
115  1  1 0.0 47.127600 35.991000 60.685100
116  1  1 0.0 49.478300 33.435000 59.415100
117  1 10 0.0 52.987200 34.879000 60.271700
118  1  8 0.0 56.578500 35.227800 61.297400
119  1 18 0.0 59.304700 33.224600 59.340400
120  1  8 0.0 61.159100 33.891800 62.536000
121  1 16 0.0 64.806900 32.934400 63.330600
122  1  1 0.0 67.481900 33.496700 61.217200
123  1 16 0.0 71.251700 34.059800 61.930900
124  1  3 0.0 71.269000 36.518900 64.503800
125  1  1 0.0 68.640400 35.891500 67.100100
126  1  8 0.0 68.483900 39.843000 67.880300
127  1 16 0.0 64.917100 39.737400 68.925900
128  1  8 0.0 64.027400 43.222200 69.025500
129  1 16 0.0 62.663600 44.588400 72.165200
130  1  8 0.0 58.927800 44.523200 72.131700
131  1 14 0.0 58.169800 40.867500 72.812000
132  1  3 0.0 59.969700 38.364200 75.283300
133  1  8 0.0 62.599900 40.921900 76.508800
134  1  8 0.0 65.557200 39.283900 74.716400
135  1 14 0.0 68.343000 41.372000 73.811500
136  1  8 0.0 69.537700 40.827300 77.370700
137  1 16 0.0 69.283600 38.688400 80.446100
138  1 16 0.0 67.284100 35.398900 79.039400
139  1 13 0.0 67.293900 33.112600 82.246500
140  1  4 -1.0 67.898300 29.653500 83.926800
141  1 16 0.0 64.714700 29.283000 85.815200
142  1 12 1.0 62.783900 31.599300 88.002500
143  1 16 0.0 65.652300 33.496500 89.039500
144  1 16 0.0 69.362600 32.640200 88.421200
145  1  8 0.0 72.241500 30.225200 87.696000
146  1 18 0.0 71.961600 26.978900 89.603100
147  1  8 0.0 71.832700 25.573400 93.148000
148  1 13 0.0 71.168100 22.580400 95.194900
149  2  3 0.0 25.832400 37.711900 134.297000
150  2  2 1.0 26.160400 35.234300 137.057000
151  2  6 0.0 24.128700 36.756400 140.068000
152  2 11 0.0 21.131900 38.736800 141.185000
153  2  7 -1.0 20.899200 40.768100 144.348000
154  2  2 1.0 20.534600 44.440500 144.904000
155  2 16 0.0 20.634100 46.223800 141.750000
156  2  8 0.0 21.247300 45.428400 138.025000
157  2  2 1.0 24.550700 46.104500 135.810000
158  2 14 0.0 22.668500 45.892200 132.568000
159  2  8 0.0 22.107600 48.626200 129.966000
160  2  8 0.0 18.776300 48.729100 128.014000
161  2  3 0.0 19.651800 48.750400 124.170000
162  2 15 0.0 22.146100 51.322000 123.110000
163  2  8 0.0 21.456200 54.670200 124.245000
164  2  8 0.0 18.401900 53.277600 125.999000
165  2 14 0.0 15.785000 55.303600 123.804000
166  2  8 0.0 13.805400 57.864100 121.489000
167  2  3 0.0 10.252600 59.433600 120.172000
168  2  6 0.0 12.498000 62.782400 120.076000
169  2  8 0.0 10.434200 65.428600 121.491000
170  2  8 0.0 9.816390 69.112200 120.418000
171  2 14 0.0 8.723360 67.841400 116.714000
172  2  8 0.0 4.880080 68.398000 117.288000
173  2  3 0.0 1.311510 69.403300 117.054000
174  2 16 0.0 147.771000 70.705600 118.100000
175  2  2 1.0 144.427000 69.518600 116.244000
176  2  8 0.0 143.962000 73.099400 115.450000
177  2  8 0.0 147.359000 74.729000 114.688000
178  2  8 0.0 146.425000 78.189500 116.111000
179  2  1 0.0 145.460000 78.476200 119.768000
180  2  8 0.0 148.382000 81.119600 119.410000
181  2 11 0.0 1.903170 80.960000 117.795000
182  2  8 0.0 2.426700 83.296000 114.873000
183  2  3 0.0 1.863770 86.745700 112.848000
184  2  3 0.0 148.475000 88.557600 112.391000
185  2  6 0.0 148.538000 90.279300 108.516000
186  2  8 0.0 149.959000 93.459000 110.148000
187  2 16 0.0 3.251780 94.347100 108.255000
188  2  3 0.0 5.851030 92.094000 106.782000
189  2 13 0.0 4.560100 90.107700 103.596000
190  2  8 0.0 7.883610 88.139200 103.377000
191  2  8 0.0 6.855030 84.708700 104.444000
192  2  8 0.0 5.510820 84.485100 100.970000
193  2 13 0.0 3.585290 85.806500 98.036300
194  2  3 0.0 3.760500 88.669600 95.642600
195  2 14 0.0 3.672210 91.176200 92.672500
196  2  8 0.0 3.717690 95.072800 92.509300
197  2  1 0.0 0.502605 96.182800 90.880600
198  2 14 0.0 148.126000 96.645800 93.707600
199  2 16 0.0 149.647000 97.443100 97.170900
200  2 10 0.0 2.446040 95.139300 98.465500
201  2  3 0.0 1.878370 96.310200 102.156000
202  2 15 0.0 0.078146 99.758000 101.992000
203  2  1 0.0 2.512760 100.817000 104.674000
204  2 13 0.0 5.428680 100.988000 102.369000
205  2 13 0.0 3.610270 102.908000 99.778200
206  2  1 0.0 2.642110 105.453000 102.401000
207  2  1 0.0 6.334760 106.070000 103.254000
208  2  1 0.0 7.115510 107.184000 99.653400
209  2  6 0.0 4.435730 109.857000 100.062000
210  2  1 0.0 5.817560 111.197000 103.337000
211  2  1 0.0 9.341240 111.933000 101.913000
212  2 11 0.0 8.002980 114.183000 99.068200
213  2  6 0.0 6.199690 116.505000 101.650000
214  2 16 0.0 9.530250 116.795000 103.535000
215  2 16 0.0 11.196500 118.580000 100.584000
216  2 18 0.0 9.764980 122.072000 101.214000
217  2  8 0.0 10.739500 122.460000 104.840000
218  2 13 0.0 14.367400 121.316000 104.922000
219  2 13 0.0 15.380600 123.434000 101.919000
220  2  8 0.0 13.798000 126.441000 103.582000
221  2 13 0.0 15.794800 126.213000 106.803000
222  2 11 0.0 18.993100 126.733000 104.874000
223  2  1 0.0 18.540500 129.375000 102.328000
224  2 16 0.0 21.582600 131.145000 101.740000
225  2  6 0.0 21.109400 134.694000 100.412000
226  2  6 0.0 24.058900 136.847000 101.211000
227  2  3 0.0 26.468100 139.642000 99.411500
228  2  6 0.0 29.460900 141.887000 100.215000
229  2 16 0.0 31.154900 144.601000 102.482000
230  2  8 0.0 31.072000 147.168000 105.347000
231  2 15 0.0 33.669300 147.966000 108.312000
232  2 16 0.0 36.670900 146.010000 109.322000
233  2  8 0.0 40.165400 144.515000 109.280000
234  2  3 0.0 42.973800 144.041000 111.969000
235  2  3 0.0 44.578200 140.520000 111.366000
236  2  6 0.0 45.479100 140.833000 107.561000
237  2  3 0.0 48.144100 143.822000 108.431000
238  2  6 0.0 51.329300 143.815000 110.492000
239  2  8 0.0 53.129200 147.260000 109.838000
240  2  3 0.0 53.534400 149.881000 112.614000
241  2 13 0.0 56.930300 1.148800 113.952000
242  2  6 0.0 59.842000 3.444060 114.306000
243  2  2 1.0 63.167100 3.177150 112.145000
244  2  7 -1.0 63.107300 149.770000 110.382000
245  2 15 0.0 60.480300 146.824000 109.278000
246  2  3 0.0 62.066400 143.531000 109.836000
247  2  6 0.0 63.941800 140.783000 108.243000
248  2  1 0.0 67.443600 140.336000 106.979000
249  2 14 0.0 68.620800 143.556000 105.922000
250  2  8 0.0 68.215600 144.659000 102.252000
251  2 16 0.0 65.963100 147.132000 101.277000
252  2  8 0.0 67.331500 0.615330 102.110000
253  2  3 0.0 69.972100 2.744040 100.688000
254  2  3 0.0 72.799800 1.424630 98.335000
255  2 16 0.0 75.733400 148.791000 98.673000
256  2 19 0.0 77.050400 146.410000 101.282000
257  2 16 0.0 76.043500 143.447000 103.458000
258  2  8 0.0 73.310300 140.899000 102.492000
259  2 16 0.0 71.404100 137.756000 101.596000
260  2  3 0.0 68.084400 138.340000 100.101000
261  2 16 0.0 64.640500 136.613000 99.803700
262  2  8 0.0 63.787000 139.040000 97.120300
263  2  1 0.0 59.882100 138.843000 96.946500
264  2  1 0.0 57.205400 141.778000 97.767700
265  2 10 0.0 53.922600 141.590000 95.458000
266  2  8 0.0 52.765700 140.564000 99.126300
267  2 18 0.0 50.527700 142.217000 101.630000
268  2  8 0.0 47.432500 144.274000 101.176000
269  2 16 0.0 44.796900 146.703000 100.055000
270  2  1 0.0 43.629400 0.372037 99.275800
271  2 16 0.0 41.039700 149.044000 96.724800
272  2  3 0.0 41.138700 1.716610 93.773100
273  2  1 0.0 41.331300 149.932000 90.276100
274  2  8 0.0 43.082200 148.460000 87.152900
275  2 16 0.0 44.596100 2.051370 86.003100
276  2  8 0.0 42.342300 3.446690 83.287300
277  2 16 0.0 44.823100 1.823420 81.125800
278  2  8 0.0 44.314000 148.436000 79.638600
279  2 14 0.0 42.819300 144.654000 79.287300
280  2  3 0.0 44.226500 145.175000 75.997700
281  2  8 0.0 42.917400 145.511000 72.552300
282  2  8 0.0 45.057100 143.189000 70.725300
283  2 14 0.0 47.984900 141.142000 69.498600
284  2  8 0.0 49.328000 143.528000 72.337500
285  2 16 0.0 52.155600 144.838000 69.933600
286  2 16 0.0 55.052800 144.006000 67.379100
287  2 13 0.0 56.023900 146.850000 65.208200
288  2  4 -1.0 59.034400 148.551000 66.821900
289  2 16 0.0 60.176800 1.854240 68.156400
290  2 12 1.0 58.752600 3.795460 70.908300
291  2 16 0.0 55.471900 2.075500 70.753700
292  2 16 0.0 52.552100 3.690240 68.931200
293  2  8 0.0 49.685600 5.882790 70.027200
294  2 18 0.0 46.818300 3.691220 71.595300
295  2  8 0.0 44.026500 2.239070 73.633600
296  2 13 0.0 41.180200 2.501510 76.128300
297  3  3 0.0 79.996700 110.087000 71.653200
298  3  2 1.0 77.786900 107.143000 71.432900
299  3  6 0.0 79.514300 104.276000 69.544400
300  3 11 0.0 80.663000 100.532000 69.791700
301  3  7 -1.0 78.677400 97.288800 70.213600
302  3  2 1.0 76.745400 94.218100 71.899800
303  3 16 0.0 75.379900 90.499100 71.574700
304  3  8 0.0 75.806000 86.804900 72.671500
305  3  2 1.0 73.414500 84.674400 74.749100
306  3 14 0.0 71.944900 87.432800 76.707800
307  3  8 0.0 71.922200 86.641000 80.519000
308  3  8 0.0 71.294500 88.113100 84.059600
309  3  3 0.0 67.488600 88.170600 85.040000
310  3 15 0.0 67.856800 84.347500 86.055900
311  3  8 0.0 70.849500 84.535400 88.203800
312  3  8 0.0 70.781900 81.496400 90.118500
313  3 14 0.0 70.191800 77.446800 90.649800
314  3  8 0.0 67.726500 75.291400 92.609700
315  3  3 0.0 64.518800 76.714200 94.410300
316  3  6 0.0 62.460000 76.828300 97.853300
317  3  8 0.0 64.166200 80.461100 98.301900
318  3  8 0.0 67.396900 82.050900 98.988100
319  3 14 0.0 70.994800 81.463600 97.537100
320  3  8 0.0 71.066400 79.043200 100.529000
321  3  3 0.0 74.743800 77.575200 100.995000
322  3 16 0.0 75.917700 74.950400 98.448900
323  3  2 1.0 75.178600 74.298300 94.750900
324  3  8 0.0 76.291800 70.693100 93.695500
325  3  8 0.0 76.741100 68.937500 90.373400
326  3  8 0.0 74.550400 66.135500 91.846600
327  3  1 0.0 72.968100 67.169100 95.140500
328  3  8 0.0 71.099800 64.209000 96.876500
329  3 11 0.0 73.748700 61.950400 98.486000
330  3  8 0.0 75.573900 63.013100 101.795000
331  3  3 0.0 75.798200 62.062500 105.742000
332  3  3 0.0 72.869400 62.084200 108.198000
333  3  6 0.0 73.224800 58.868400 110.214000
334  3  8 0.0 74.560300 57.068400 107.144000
335  3 16 0.0 75.429200 56.120800 103.418000
336  3  3 0.0 72.218000 55.377600 101.409000
337  3 13 0.0 68.797800 55.612100 99.924100
338  3  8 0.0 68.739900 52.287400 97.698800
339  3  8 0.0 65.579000 50.238600 97.829400
340  3  8 0.0 62.270700 49.994900 95.697600
341  3 13 0.0 58.796000 51.060400 96.894600
342  3  3 0.0 57.264000 48.848000 99.828500
343  3 14 0.0 55.097500 46.936500 102.210000
344  3  8 0.0 54.259300 44.719000 105.075000
345  3  1 0.0 52.371700 41.485700 103.964000
346  3 14 0.0 50.886500 38.381900 102.161000
347  3 16 0.0 54.588700 37.117400 102.107000
348  3 10 0.0 57.772700 37.764000 99.962200
349  3  3 0.0 60.344000 39.871300 97.897300
350  3 15 0.0 59.119500 43.565600 97.985700
351  3  1 0.0 59.924000 43.602900 94.299100
352  3 13 0.0 57.006400 41.500700 93.344000
353  3 13 0.0 54.598200 43.445900 95.372900
354  3  1 0.0 55.771400 46.606500 93.661000
355  3  1 0.0 54.901900 45.140300 90.220800
356  3  1 0.0 51.202900 44.708900 91.194200
357  3  6 0.0 51.116100 48.446300 91.917600
358  3  1 0.0 52.613000 49.453600 88.575000
359  3  1 0.0 49.917100 47.645000 86.465400
360  3 11 0.0 46.979200 49.508100 88.152200
361  3  6 0.0 48.513000 52.970600 87.166300
362  3 16 0.0 48.753400 51.702100 83.553300
363  3 16 0.0 44.944500 51.430700 83.253800
364  3 18 0.0 44.209800 55.131700 82.615800
365  3  8 0.0 46.594400 55.716900 79.748200
366  3 13 0.0 45.999400 52.734500 77.462000
367  3 13 0.0 42.203900 53.092600 77.545100
368  3  8 0.0 42.588700 56.744700 76.638000
369  3 13 0.0 44.606000 56.160200 73.476400
370  3 11 0.0 41.721700 54.254100 71.971700
371  3  1 0.0 40.788700 51.360100 70.132500
372  3 16 0.0 39.722000 48.031200 71.636000
373  3  6 0.0 37.325600 45.767400 73.763000
374  3  6 0.0 33.754300 47.209900 74.488400
375  3  3 0.0 33.343000 50.892900 75.570400
376  3  6 0.0 30.528700 52.655700 77.555100
377  3 16 0.0 29.045100 56.286900 77.303300
378  3  8 0.0 29.372500 57.936800 73.676600
379  3 15 0.0 30.611900 60.371100 71.098800
380  3 16 0.0 27.636400 62.593800 71.718500
381  3  8 0.0 26.240900 65.564000 74.094300
382  3  3 0.0 26.780200 65.019900 77.781100
383  3  3 0.0 27.199000 68.501200 79.367500
384  3  6 0.0 27.307800 70.070400 82.956400
385  3  3 0.0 28.302800 73.795700 83.214100
386  3  6 0.0 26.346700 76.669800 83.568400
387  3  8 0.0 27.298400 80.335600 83.725700
388  3  3 0.0 29.579500 80.747300 80.696900
389  3 13 0.0 28.810500 84.509200 80.142500
390  3  6 0.0 24.952200 84.412300 80.578800
391  3  2 1.0 21.848500 82.321000 79.763000
392  3  7 -1.0 22.600200 79.551000 77.247900
393  3 15 0.0 25.149000 77.485200 75.491700
394  3  3 0.0 23.526800 74.151000 76.647100
395  3  6 0.0 21.360000 71.193400 75.955300
396  3  1 0.0 18.529100 68.332800 76.214900
397  3 14 0.0 14.922100 69.148700 76.935000
398  3  8 0.0 14.395200 65.224700 76.891400
399  3 16 0.0 14.548000 63.252600 80.347000
400  3  8 0.0 12.634700 60.125200 79.645400
401  3  3 0.0 12.556300 58.861800 75.936600
402  3  3 0.0 8.586510 59.315900 76.575400
403  3 16 0.0 6.361350 59.439100 79.479600
404  3 19 0.0 5.521370 59.113700 83.294900
405  3 16 0.0 3.120860 61.323800 85.227700
406  3  8 0.0 1.130820 63.581900 87.334800
407  3 16 0.0 147.959000 64.980600 85.807700
408  3  3 0.0 148.388000 67.226600 82.812400
409  3 16 0.0 148.015000 70.196400 84.953000
410  3  8 0.0 1.331550 69.178800 86.296800
411  3  1 0.0 149.459000 68.524200 89.488200
412  3  1 0.0 148.664000 66.139700 92.289300
413  3 10 0.0 148.198000 63.523000 94.821500
414  3  8 0.0 149.492000 59.760400 94.534900
415  3 18 0.0 2.068540 58.940300 91.891500
416  3  8 0.0 4.152370 56.374100 90.236000
417  3 16 0.0 7.274840 54.647600 88.752900
418  3  1 0.0 10.758900 52.894500 89.275900
419  3 16 0.0 11.369300 49.810500 86.723900
420  3  3 0.0 12.768900 51.778000 84.051600
421  3  1 0.0 10.346500 54.484900 83.325500
422  3  8 0.0 7.428250 53.190200 80.905700
423  3 16 0.0 10.077300 54.220100 78.416200
424  3  8 0.0 13.728400 54.374700 78.934200
425  3 16 0.0 14.816700 50.810700 78.998600
426  3  8 0.0 17.377100 48.639600 80.858900
427  3 14 0.0 19.298700 46.086900 82.635500
428  3  3 0.0 18.167100 43.495900 85.383900
429  3  8 0.0 16.038000 40.869600 87.229600
430  3  8 0.0 14.714600 41.432700 90.873000
431  3 14 0.0 14.461200 45.070300 91.001500
432  3  8 0.0 16.236000 48.068300 92.087000
433  3 16 0.0 17.204000 51.065800 89.856200
434  3 16 0.0 19.857700 51.860600 87.397600
435  3 13 0.0 17.973700 54.815600 85.774000
436  3  4 -1.0 16.252600 57.845100 83.893300
437  3 16 0.0 18.712300 59.008300 81.338500
438  3 12 1.0 22.414400 59.500500 80.480600
439  3 16 0.0 23.785000 56.019000 79.811600
440  3 16 0.0 26.130300 53.395600 81.564500
441  3  8 0.0 25.351400 54.415400 85.186300
442  3 18 0.0 26.234300 53.670000 88.766800
443  3  8 0.0 26.311400 49.809400 87.341900
444  3 13 0.0 25.272800 48.061100 84.187800
445  4  3 0.0 126.979000 146.029000 136.050000
446  4  2 1.0 130.179000 147.296000 136.903000
447  4  6 0.0 131.931000 0.228116 138.377000
448  4 11 0.0 134.424000 2.979760 137.378000
449  4  7 -1.0 137.109000 3.634970 140.275000
450  4  2 1.0 140.744000 5.012220 140.066000
451  4 16 0.0 140.646000 7.719270 137.371000
452  4  8 0.0 141.944000 11.233800 138.361000
453  4  2 1.0 144.327000 13.345300 136.208000
454  4 14 0.0 145.104000 13.094100 132.381000
455  4  8 0.0 145.328000 9.279700 132.082000
456  4  8 0.0 143.252000 9.311200 128.733000
457  4  3 0.0 143.268000 12.853500 126.911000
458  4 15 0.0 143.149000 16.324900 126.362000
459  4  8 0.0 141.793000 15.857300 122.999000
460  4  8 0.0 138.859000 17.833200 123.713000
461  4 14 0.0 137.176000 17.425900 120.122000
462  4  8 0.0 134.141000 18.476900 117.515000
463  4  3 0.0 134.981000 22.086500 117.095000
464  4  6 0.0 133.515000 24.452200 119.720000
465  4  8 0.0 131.386000 24.671600 123.209000
466  4  8 0.0 130.845000 22.384800 126.347000
467  4 14 0.0 128.597000 19.206200 127.287000
468  4  8 0.0 128.743000 17.657100 131.035000
469  4  3 0.0 126.519000 14.693800 131.639000
470  4 16 0.0 123.753000 14.695500 129.121000
471  4  2 1.0 121.619000 11.900700 127.536000
472  4  8 0.0 122.616000 13.323300 124.193000
473  4  8 0.0 124.480000 16.608000 124.636000
474  4  8 0.0 125.845000 16.259200 121.120000
475  4  1 0.0 126.221000 12.384700 121.294000
476  4  8 0.0 128.156000 13.261200 124.347000
477  4 11 0.0 129.759000 10.849500 126.632000
478  4  8 0.0 128.815000 8.056920 129.298000
479  4  3 0.0 130.841000 5.110800 128.543000
480  4  3 0.0 130.511000 1.708070 129.529000
481  4  6 0.0 133.907000 1.348720 131.303000
482  4  8 0.0 136.693000 1.713130 128.738000
483  4 16 0.0 140.545000 1.820290 130.034000
484  4  3 0.0 140.620000 0.682577 133.787000
485  4 13 0.0 140.797000 146.918000 134.849000
486  4  8 0.0 143.721000 145.768000 132.195000
487  4  8 0.0 143.300000 147.857000 129.370000
488  4  8 0.0 145.140000 0.071897 127.088000
489  4 13 0.0 146.184000 3.664760 125.827000
490  4  3 0.0 145.223000 6.380530 123.304000
491  4 14 0.0 143.108000 8.949390 121.099000
492  4  8 0.0 141.854000 11.106500 118.485000
493  4  1 0.0 138.193000 11.811900 118.345000
494  4 14 0.0 134.534000 10.915500 119.437000
495  4 16 0.0 135.586000 9.416610 122.836000
496  4 10 0.0 137.728000 6.461080 123.489000
497  4  3 0.0 137.307000 5.132220 119.834000
498  4 15 0.0 133.486000 4.733870 119.201000
499  4  1 0.0 134.397000 1.426430 117.631000
500  4 13 0.0 135.153000 149.764000 120.872000
501  4 13 0.0 132.057000 0.955974 122.513000
502  4  1 0.0 130.039000 149.530000 119.652000
503  4  1 0.0 131.520000 146.040000 120.264000
504  4  1 0.0 130.143000 145.945000 123.858000
505  4  6 0.0 126.674000 146.476000 122.380000
506  4  1 0.0 126.969000 143.657000 119.851000
507  4  1 0.0 127.748000 140.940000 122.497000
508  4 11 0.0 124.551000 141.658000 124.549000
509  4  6 0.0 122.303000 141.019000 121.410000
510  4 16 0.0 124.117000 137.670000 120.941000
511  4 16 0.0 122.757000 136.318000 124.256000
512  4 18 0.0 119.261000 135.361000 123.030000
513  4  8 0.0 120.238000 133.266000 120.047000
514  4 13 0.0 122.995000 131.016000 121.394000
515  4 13 0.0 121.021000 130.010000 124.497000
516  4  8 0.0 118.096000 129.114000 122.272000
517  4 13 0.0 119.999000 126.675000 120.072000
518  4 11 0.0 120.685000 124.487000 123.068000
519  4  1 0.0 118.197000 125.173000 126.009000
520  4 16 0.0 115.270000 126.774000 127.648000
521  4  6 0.0 114.694000 126.077000 131.408000
522  4  6 0.0 117.924000 124.722000 132.998000
523  4  3 0.0 121.363000 123.008000 134.284000
524  4  6 0.0 124.742000 124.873000 133.329000
525  4 16 0.0 125.162000 127.486000 130.676000
526  4  8 0.0 123.520000 130.803000 129.882000
527  4 15 0.0 122.917000 134.627000 130.042000
528  4 16 0.0 119.423000 134.257000 131.466000
529  4  8 0.0 116.194000 133.786000 129.797000
530  4  3 0.0 112.575000 133.373000 130.639000
531  4  3 0.0 109.701000 134.909000 128.358000
532  4  6 0.0 107.872000 134.846000 125.169000
533  4  3 0.0 109.393000 131.230000 124.249000
534  4  6 0.0 107.429000 129.107000 126.652000
535  4  8 0.0 108.864000 125.526000 126.768000
536  4  3 0.0 111.681000 125.158000 124.115000
537  4 13 0.0 111.496000 126.448000 120.485000
538  4  6 0.0 112.313000 123.366000 118.208000
539  4  2 1.0 114.426000 121.698000 115.493000
540  4  7 -1.0 116.071000 118.753000 113.595000
541  4 15 0.0 117.435000 115.335000 112.058000
542  4  3 0.0 114.897000 112.803000 110.566000
543  4  6 0.0 111.182000 113.651000 109.901000
544  4  1 0.0 110.131000 115.177000 113.064000
545  4 14 0.0 108.809000 118.833000 113.037000
546  4  8 0.0 107.925000 121.965000 114.960000
547  4 16 0.0 105.687000 122.236000 117.763000
548  4  8 0.0 104.003000 119.065000 119.064000
549  4  3 0.0 102.705000 116.476000 121.451000
550  4  3 0.0 101.598000 112.856000 121.192000
551  4 16 0.0 98.255700 111.269000 121.133000
552  4 19 0.0 95.306400 109.112000 122.084000
553  4 16 0.0 96.652900 106.877000 124.753000
554  4  8 0.0 97.948000 109.860000 127.017000
555  4 16 0.0 96.065100 108.441000 130.478000
556  4  3 0.0 92.938500 107.893000 133.168000
557  4 16 0.0 91.889300 104.513000 133.464000
558  4  8 0.0 91.740700 105.021000 137.330000
559  4  1 0.0 95.012500 104.333000 139.092000
560  4  1 0.0 95.850800 101.833000 141.800000
561  4 10 0.0 93.329700 99.288900 143.162000
562  4  8 0.0 92.135100 98.988200 139.414000
563  4 18 0.0 92.812000 97.810900 135.699000
564  4  8 0.0 96.410700 98.338300 134.968000
565  4 16 0.0 99.958600 96.987800 134.861000
566  4  1 0.0 102.941000 99.298100 135.684000
567  4 16 0.0 102.804000 102.576000 136.806000
568  4  3 0.0 106.451000 103.540000 137.689000
569  4  1 0.0 107.549000 99.877300 138.219000
570  4  8 0.0 105.371000 96.959000 139.414000
571  4 16 0.0 108.024000 96.219400 141.799000
572  4  8 0.0 108.455000 92.845000 143.668000
573  4 16 0.0 105.371000 91.537500 142.536000
574  4  8 0.0 102.011000 92.745500 142.233000
575  4 14 0.0 98.412100 93.764800 142.570000
576  4  3 0.0 96.749400 91.610800 139.670000
577  4  8 0.0 97.671900 92.345500 135.848000
578  4  8 0.0 95.724500 91.420800 132.695000
579  4 14 0.0 99.038900 90.713700 130.449000
580  4  8 0.0 102.815000 89.812700 130.773000
581  4 16 0.0 106.114000 87.901200 130.268000
582  4 16 0.0 108.545000 85.872800 128.501000
583  4 13 0.0 108.571000 81.845500 128.734000
584  4  4 -1.0 111.489000 79.324700 128.974000
585  4 16 0.0 109.816000 76.052100 129.588000
586  4 12 1.0 109.005000 77.017500 133.273000
587  4 16 0.0 105.520000 75.830100 134.742000
588  4 16 0.0 102.995000 77.644400 136.877000
589  4  8 0.0 100.366000 75.873700 134.916000
590  4 18 0.0 96.811900 76.764100 135.447000
591  4  8 0.0 97.350500 79.577000 132.880000
592  4 13 0.0 100.831000 80.922100 131.703000
593  5  3 0.0 65.808600 122.300000 112.911000
594  5  2 1.0 64.988500 119.698000 110.575000
595  5  6 0.0 63.349000 119.788000 107.209000
596  5 11 0.0 61.604500 116.832000 105.829000
597  5  7 -1.0 59.736600 113.842000 104.317000
598  5  2 1.0 58.446300 110.781000 102.423000
599  5 16 0.0 54.912600 109.595000 103.092000
600  5  8 0.0 53.062100 106.523000 103.656000
601  5  2 1.0 53.712900 105.580000 107.342000
602  5 14 0.0 53.720000 103.952000 110.892000
603  5  8 0.0 50.666000 104.217000 113.202000
604  5  8 0.0 47.346100 106.087000 113.154000
605  5  3 0.0 44.701000 108.039000 111.288000
606  5 15 0.0 45.763500 110.694000 109.103000
607  5  8 0.0 47.723800 112.384000 112.239000
608  5  8 0.0 50.693200 109.907000 113.022000
609  5 14 0.0 50.545900 109.110000 116.614000
610  5  8 0.0 49.137200 111.682000 118.957000
611  5  3 0.0 47.290400 110.495000 122.355000
612  5  6 0.0 48.124100 112.912000 124.907000
613  5  8 0.0 48.038200 111.811000 128.751000
614  5  8 0.0 51.536700 113.178000 129.319000
615  5 14 0.0 54.753700 113.692000 127.302000
616  5  8 0.0 55.705100 112.636000 130.794000
617  5  3 0.0 56.093700 113.632000 134.665000
618  5 16 0.0 58.280400 116.619000 134.619000
619  5  2 1.0 60.829100 116.886000 131.723000
620  5  8 0.0 64.472400 117.005000 132.454000
621  5  8 0.0 66.732300 114.920000 130.435000
622  5  8 0.0 69.160500 117.509000 131.566000
623  5  1 0.0 72.362300 115.596000 132.319000
624  5  8 0.0 73.184400 119.297000 130.893000
625  5 11 0.0 75.634900 119.852000 133.941000
626  5  8 0.0 73.183600 118.015000 135.993000
627  5  3 0.0 74.243700 116.810000 139.728000
628  5  3 0.0 73.829600 113.574000 141.586000
629  5  6 0.0 71.082000 114.629000 144.459000
630  5  8 0.0 71.824100 112.869000 147.984000
631  5 16 0.0 75.677000 113.329000 148.735000
632  5  3 0.0 77.362700 115.288000 146.168000
633  5 13 0.0 80.657400 115.863000 144.520000
634  5  8 0.0 82.909000 118.918000 144.830000
635  5  8 0.0 85.520400 120.274000 142.472000
636  5  8 0.0 87.818000 122.820000 140.710000
637  5 13 0.0 88.372500 124.937000 137.733000
638  5  3 0.0 87.119100 125.460000 134.311000
639  5 14 0.0 83.991900 124.637000 131.822000
640  5  8 0.0 83.596500 122.298000 128.883000
641  5  1 0.0 81.997300 118.776000 128.488000
642  5 14 0.0 84.078900 116.219000 126.933000
643  5 16 0.0 81.796700 115.076000 124.256000
644  5 10 0.0 81.131000 118.162000 121.843000
645  5  3 0.0 78.405900 120.320000 123.639000
646  5 15 0.0 76.876300 118.109000 126.456000
647  5  1 0.0 73.546900 119.421000 125.259000
648  5 13 0.0 73.537700 117.390000 122.141000
649  5 13 0.0 74.491200 114.254000 123.861000
650  5  1 0.0 71.606800 114.740000 126.257000
651  5  1 0.0 69.116800 114.848000 123.336000
652  5  1 0.0 70.117900 111.316000 122.180000
653  5  6 0.0 69.162800 110.076000 125.651000
654  5  1 0.0 65.736800 111.718000 125.646000
655  5  1 0.0 64.565600 109.990000 122.386000
656  5 11 0.0 65.235600 106.428000 123.729000
657  5  6 0.0 62.882900 107.060000 126.791000
658  5 16 0.0 60.171600 108.192000 124.323000
659  5 16 0.0 59.953000 104.703000 122.758000
660  5 18 0.0 57.772200 103.065000 125.443000
661  5  8 0.0 54.974000 105.596000 125.550000
662  5 13 0.0 54.181400 106.215000 121.880000
663  5 13 0.0 54.037700 102.506000 121.012000