ITEM: TIMESTEP
700000
ITEM: NUMBER OF ATOMS
14800
ITEM: BOX BOUNDS pp pp pp
0.0000000000000000e+00 1.5000000000000000e+02
0.0000000000000000e+00 1.5000000000000000e+02
-2.5000000000000000e+02 2.5000000000000000e+02
ITEM: ATOMS id type x y z
3336 6 21.4703 25.2084 3.36585
3335 3 17.5567 25.4314 3.14842
3342 3 20.2241 18.3864 5.21997
12915 16 21.7128 4.47125 18.7857
3339 15 21.2563 20.7205 13.4769
3338 8 20.2114 22.5739 10.4697
11104 11 11.8899 10.8768 11.9908
3337 16 20.6497 24.3578 7.18304
11103 6 11.7126 7.04754 12.7281
9670 14 17.8375 34.2372 14.5725
11114 15 23.5846 14.8103 17.5689
11113 3 21.1996 11.7646 17.9679
11112 8 18.0857 9.19835 17.64
9666 3 11.0221 30.7637 23.0526
11107 16 18.0227 17.88 17.2144
11106 2 16.6234 15.1858 15.0178
3347 8 16.5834 23.1611 15.8579
3346 6 15.4792 26.5296 14.0432
3344 6 15.2873 21.6632 8.33044
3343 3 17.2856 18.4769 7.56122
3341 8 22.6729 17.9365 8.23067
3340 16 24.1835 19.4756 11.1972
3345 3 15.2398 24.1281 11.1118
11105 7 15.0207 12.8441 12.8611
3334 6 16.0171 28.3144 5.0598
3333 6 16.6219 30.8511 8.02758
3332 16 19.9476 29.4665 9.31976
11108 8 18.8269 15.6618 20.0102
11110 14 16.7285 11.1334 24.4483
11109 2 16.1465 14.032 22.2439
11111 8 17.134 8.95195 21.1538
9672 10 21.9327 35.5962 9.07997
3331 1 21.1012 27.4849 11.9937
7431 1 5.84217 32.6575 28.1141
3328 8 22.3801 24.3496 19.0903
5489 3 2.52983 3.01007 28.4338
7429 8 12.6496 35.6995 27.9539
11141 13 7.92567 9.46671 29.8176
7430 8 8.85548 35.1574 27.0037
3330 11 23.9363 26.2573 14.3285
9665 13 9.34662 27.8001 24.5494
9667 14 11.0081 34.5882 22.0465
11116 8 23.9359 12.4846 22.6412
12922 3 24.4211 0.626033 21.3314
3350 6 17.3287 28.3954 22.4459
3329 13 23.7373 27.6594 17.8231
9671 16 19.8051 36.3233 12.264
3353 15 23.0106 32.6873 25.0362
11130 8 15.0142 21.6365 29.2165
3351 2 16.9799 31.918 24.579
3349 13 15.6193 24.8143 22.2598
12916 3 21.57 3.39468 14.9722
3324 18 24.8275 20.6854 23.7323
12917 13 20.4821 0.525746 12.7834
3348 3 14.8097 22.7372 19.1602
7432 8 4.43625 31.0749 24.9967
12913 6 16.2481 2.32372 22.8766
11118 8 24.6857 11.1011 28.313
12914 8 19.2924 2.53068 20.6693
7433 11 0.860702 30.5341 25.6645
12912 3 17.5107 3.21229 26.5699
9668 8 13.1089 36.0645 19.1207
9669 1 14.3549 34.1322 16.1016
11128 8 17.8822 16.4506 26.7349
11102 2 12.2872 4.25391 10.0206
3354 3 22.6095 32.1662 21.1217
3352 7 19.5731 33.5964 26.632
12924 8 23.7287 1.46946 28.0856
12531 6 21.0809 12.8254 8.79082
12530 3 23.8097 12.734 6.06799
12532 1 22.4848 10.7394 12.004
9621 3 4.86 31.8424 17.3882
9627 16 0.019431 17.3739 26.0931
11129 8 15.1965 19.3077 26.0862
12923 14 22.7206 0.0562635 24.7525
9622 2 2.09392 29.5308 16.7322
11101 3 14.8147 2.04333 8.47703
9664 8 8.06422 25.9032 27.8203
11140 3 7.68318 12.6472 27.4888
10013 15 1.77695 35.962 18.8731
6835 2 22.411 24.6257 29.1014
11126 16 14.3497 13.6811 29.7103
11139 16 6.74245 15.5917 29.7532
11115 8 26.1713 13.4657 19.7184
12516 16 38.9716 3.02897 16.6619
9750 8 40.5473 0.0218544 28.3001
12995 18 48.13 35.896 25.8323
3325 8 25.355 24.4005 23.3239
12514 8 44.5982 1.21097 15.2696
12999 16 48.5509 25.4664 27.1374
12517 8 35.3675 2.45698 15.6867
9688 18 39.5808 22.7519 26.6869
3321 6 28.9975 19.5558 28.7547
12518 3 32.3188 4.24272 16.836
3327 13 25.4199 22.2941 18.1688
12512 6 47.7261 6.7794 15.514
11117 14 25.4888 13.8138 25.9862
12929 3 26.5842 6.48979 28.062
9673 3 25.6033 36.7545 8.37629
9748 8 40.3908 6.08245 29.8119
12979 16 32.5592 21.6972 12.6927
12980 8 29.4412 23.8804 12.2383
3326 13 27.5717 24.6596 20.2429
12994 8 45.6819 32.9213 26.1375
12993 10 45.5224 29.4516 24.2855
13000 3 47.4762 21.935 28.529
12528 7 31.0738 9.95899 6.32395
12527 2 31.8769 6.28622 5.71375
12978 8 31.1164 18.0126 12.3396
12977 14 29.5849 15.9572 15.168
12529 15 27.742 11.6246 5.69987
12535 16 29.2879 4.97613 10.6731
12937 6 39.6196 9.99936 24.5713
12932 13 30.9517 10.4025 27.6794
12930 15 29.4237 5.55612 25.5682
12935 1 35.0185 12.5653 25.186
12946 13 48.3464 22.9148 21.3193
9684 11 33.3147 25.8926 22.1241
12990 8 44.6425 28.0918 15.8885
12941 6 44.7993 13.5364 21.3317
9679 1 31.8435 32.9853 16.3247
9682 1 35.108 29.4057 18.0802
12982 3 32.065 27.5047 7.68119
12981 3 28.9955 26.883 10.0298
12972 7 42.5465 17.3002 15.9364
12971 2 41.9635 17.9988 12.1229
12975 6 33.1118 18.2376 20.1735
12976 1 30.3591 15.7677 18.724
12974 3 36.8583 18.4792 20.3633
9678 1 31.2818 31.2003 12.9721
12973 15 39.6462 18.6152 17.7333
9677 13 27.5519 31.7681 13.2243
12938 1 39.3434 13.1338 22.4427
12983 16 34.6807 25.0534 9.03394
12984 19 38.2367 25.5486 8.11861
12985 16 41.6731 27.1048 8.49596
12986 8 44.129 29.3504 9.6459
9675 1 30.2398 35.5596 10.4056
12988 3 39.1912 30.0467 13.5246
12987 16 41.5788 31.7293 11.057
9676 13 28.166 35.4083 13.4907
9674 15 27.8166 33.5528 8.32184
12942 16 44.5328 17.344 21.7292
9681 6 31.9128 27.7152 16.9149
12934 1 34.4537 8.94767 24.0314
12931 1 29.3211 9.19098 24.5619
12523 8 38.4556 12.6129 13.6314
12524 3 40.1249 9.1319 12.0904
12522 6 34.53 12.0708 12.9038
12521 3 34.1171 9.26223 15.2862
12520 6 32.6102 9.89975 18.9451
12525 13 37.7268 7.56642 9.44555
9680 1 29.6101 30.4665 18.1896
12526 6 35.3914 5.93133 6.80636
9685 6 36.9848 25.0661 21.0477
12519 3 31.6813 6.12939 20.3039
12989 16 41.1492 29.1598 16.6583
9683 1 33.9873 29.6831 21.7754
12991 1 45.8758 30.9908 18.2807
9686 16 38.1992 27.5161 23.741
12992 1 47.7372 31.1525 21.6123
12533 14 26.2468 10.1639 12.0816
12939 1 41.1042 15.4213 25.0224
12943 16 47.7191 17.4778 23.8498
12536 8 31.4511 1.57204 10.0962
12940 11 44.2751 13.2176 25.197
3319 1 34.2992 19.2268 27.1398
12945 8 48.9345 20.0884 18.841
12534 8 25.835 6.57268 10.8078
12933 13 33.6544 7.87716 27.5679
12936 1 37.8349 11.4973 27.5817
3323 16 28.4422 19.5168 23.2692
3322 16 30.0693 21.8265 25.8544
3320 11 31.3162 16.7724 27.2735
12509 6 46.4457 4.98567 25.4191
12510 6 47.1211 7.62621 22.8621
6853 13 36.9435 33.807 28.5136
3355 6 25.0974 34.6115 18.9526
12513 16 45.6892 4.42221 13.4507
6848 3 29.1056 34.6846 27.3806
9689 8 42.5217 25.0964 27.0133
12511 3 46.4003 7.75626 19.041
9687 16 36.7682 25.3436 26.5517
12970 6 45.1808 20.3264 11.3049
6852 8 36.0566 32.7118 25.0362
6849 13 29.7777 33.9274 23.5425
12969 13 45.1576 24.108 12.4043
12968 3 48.4642 25.7748 13.5302
9749 16 39.1333 3.44218 27.0392
6851 8 35.0306 34.5996 21.8
6850 8 31.7886 36.0172 20.5404
6854 3 39.5594 36.7074 28.6391
12515 15 42.4381 2.27608 18.5654
12552 8 49.2178 0.275383 22.2702
9758 16 35.3491 0.970238 29.6779
9690 13 41.4137 27.56 29.6921
12997 16 49.3005 30.3359 29.8193
12966 6 52.3341 23.2218 8.71078
12996 8 50.4596 33.0764 27.4788
12953 6 58.5378 25.1026 28.5933
3391 14 66.8407 34.6017 9.9981
3257 3 71.6964 1.54237 13.3194
4853 10 74.3245 33.185 29.2562
11643 6 65.2406 30.5935 29.4223
14339 14 58.6659 6.34869 28.4316
11753 6 73.3278 11.8694 27.6569
3289 11 71.5314 1.27641 25.5948
12507 1 52.1403 7.80057 28.7425
12551 18 52.2037 2.32971 22.5734
11645 14 71.0119 27.4989 29.2954
4871 14 71.1984 29.3819 10.9572
4872 8 72.4842 30.896 14.3824
12508 16 49.8552 5.25977 27.1221
14341 8 59.2045 0.492419 27.2827
3281 3 73.2593 8.36148 23.1758
12998 1 51.3868 27.7387 28.2748
13005 16 54.8964 16.9583 25.226
13018 12 62.5883 16.7118 25.8077
4873 16 69.9081 33.4742 14.9999
13004 8 53.3162 19.4762 27.6383
13017 16 60.6915 15.8157 28.8162
12960 16 54.0353 29.1017 10.4545
4876 4 68.9124 31.0437 22.6833
3259 6 74.1085 1.1893 19.4138
12944 18 50.2543 17.28 20.9894
14340 3 57.3981 3.75692 25.9094
3286 8 68.8674 6.99442 28.3578
12950 11 53.6106 27.713 21.3638
12947 13 51.7678 22.5458 22.9582
12948 8 53.3598 22.6827 19.5295
4879 16 64.3361 23.2908 21.143
3285 8 66.2437 9.52756 29.0969
12961 8 55.6575 32.2874 9.20618
12956 6 58.742 23.9768 19.2016
4878 12 67.9199 23.8423 22.3545
12959 15 55.7246 28.6488 13.6614
3284 8 63.9588 10.1743 25.763
13021 8 59.5469 14.7819 16.9846
12962 3 58.1053 30.4989 6.96414
4877 16 67.7528 27.6283 23.346
12949 13 51.8301 26.0053 18.5134
13023 8 54.4308 18.3319 15.2815
12954 6 57.7158 22.1324 26.3413
11756 11 70.5823 16.7913 28.467
3287 1 66.4242 4.11029 29.4907
4875 13 69.0586 34.726 21.7909
12957 16 60.3526 26.919 17.5791
4874 16 67.9754 34.4186 18.1094
4884 13 62.2246 30.8915 21.7023
12955 3 58.4428 22.08 22.5895
13019 16 63.6044 17.5029 21.9596
12963 3 60.1799 27.7354 8.24487
12958 8 57.0409 28.9259 17.3341
4881 8 65.1342 25.6172 14.7405
4882 18 65.9291 29.2163 15.8134
3282 16 70.4134 11.2359 22.7461
13020 16 62.2005 14.6642 20.0381
12967 8 51.8764 24.4291 12.4937
4883 8 64.7704 30.7663 18.7107
4880 16 65.0789 22.9291 17.4744
12951 1 56.9801 28.6586 22.493
13024 13 50.9168 17.9135 13.7812
12965 3 55.5432 24.4629 7.04449
12964 6 58.6151 24.5841 9.16816
3283 2 66.7601 11.4709 23.3406
13022 18 56.5887 17.1455 18.105
13006 8 53.4963 13.6882 26.8358
3258 2 74.3865 2.44387 15.8071
1336 11 57.6437 36.843 20.8106
3288 8 67.8863 1.57635 26.7887
12952 16 56.6262 27.7205 26.354
3392 8 70.1439 36.4102 9.79008
4870 8 74.2218 29.3644 8.57502
3390 8 63.3181 35.89 9.39041
7419 3 5.88473 26.4428 43.8417
11124 8 14.533 13.4522 36.9155
11143 8 13.9231 6.7214 32.1734
11146 3 7.42256 0.201642 32.3821
11133 11 14.2197 18.5086 37.9417
10035 18 19.9021 34.2342 38.6405
11132 8 15.8973 21.5876 36.8155
10038 1 18.1129 26.4332 36.9063
7428 8 11.9333 33.9443 31.4371
11135 3 9.54856 16.9595 43.6696
10040 3 21.4976 28.6309 41.1757
6869 6 21.9514 35.1569 44.2979
10039 16 18.4337 26.1865 40.6863
11142 8 11.5944 9.64562 30.9181
11149 1 7.42523 3.1625 37.2912
11123 14 18.2044 14.1015 36.8053
11150 14 10.7584 3.32111 38.7654
11131 1 15.6837 21.3087 33.0243
6096 8 12.97 11.5139 42.446
10037 16 18.521 28.7289 33.9398
9658 8 5.99257 20.4427 43.4742
10036 8 18.786 32.0474 35.8634
7427 2 8.86138 32.8079 33.6947
9662 8 9.41007 26.4259 32.8118
9661 13 11.8043 25.6206 35.6183
11134 8 12.0049 17.5715 40.9305
11145 13 8.87542 3.51566 31.1407
12890 15 3.92556 3.11223 44.7044
11137 6 7.29322 15.4521 37.3123
6097 8 11.8753 8.65109 39.9595
11136 3 6.89249 15.6536 41.1082
11121 8 18.9158 8.83703 35.5131
11138 8 6.90475 15.5287 33.478
9660 3 9.40807 22.6827 37.1005
7424 8 11.658 35.0013 39.5157
6099 1 17.5403 5.23332 39.2635
6098 8 14.9192 7.60976 37.9447
7406 2 24.7871 10.1732 44.6454
6833 3 22.8777 18.2503 32.6018
9639 3 1.5252 27.2715 39.8157
6102 8 23.6737 2.3485 43.3487
7414 15 16.6679 18.5861 45.0238
7423 14 7.79222 35.2767 40.4448
6836 8 22.3736 27.6267 31.4711
4995 16 2.34087 11.9633 44.4091
9657 6 2.49814 19.1639 44.9385
6100 8 20.2164 2.79393 38.5148
6839 1 24.8182 34.5662 34.2385
7425 3 12.1058 31.2102 39.1622
11151 16 11.3571 1.54885 41.9421
11122 8 18.446 10.7881 38.8101
7426 16 11.8186 31.3005 35.3205
9659 16 6.98193 21.167 39.8162
9640 6 3.14989 26.9117 36.4665
7422 8 6.23748 32.2179 42.3308
6834 16 22.299 22.0236 32.1916
7405 7 24.6281 7.88619 41.5928
3366 8 22.4533 35.8207 30.3989
10041 1 24.1776 27.4276 43.6061
9663 8 5.93325 26.5099 30.7791
6832 8 23.5133 16.7322 36.184
7417 14 13.1119 27.4964 44.0153
6838 8 24.7175 31.3482 36.3052
6101 11 23.6194 2.07761 39.8193
11119 3 23.6737 12.2676 31.9392
12889 3 0.527032 3.61732 42.648
11127 2 17.801 15.1087 30.1755
11125 3 12.6915 14.2123 33.4852
7415 8 14.5455 21.5039 43.9183
11144 8 10.8524 5.56311 33.6342
5488 8 2.85977 2.76496 32.2375
10034 8 17.0095 35.5507 40.5413
5486 14 0.210969 0.552193 37.178
3365 16 19.1508 36.2112 32.4305
7418 8 9.61316 26.0202 42.9849
11120 6 20.8014 9.51801 32.0475
12911 3 15.7221 2.64109 30.071
6847 16 29.1021 32.7771 30.72
12927 16 26.625 2.54539 34.1105
9762 12 42.8256 0.740033 35.7107
7404 11 26.82 8.62065 38.3693
7403 6 28.7919 11.0803 36.3582
6846 8 31.2541 29.7115 29.9816
10044 8 31.9488 29.2341 43.0452
12501 8 49.4641 0.0608547 38.0559
10055 13 41.622 20.365 43.9648
10061 8 37.6651 15.5478 41.2006
6826 8 27.0638 19.4109 44.8395
6828 6 32.6242 18.1458 43.0709
3316 1 37.6859 15.7983 30.2056
2310 6 43.0619 4.30339 42.6993
7402 2 31.6999 9.2318 34.5
7401 3 35.4557 9.0091 33.7081
6830 8 27.5303 18.3926 39.1049
6845 6 33.8574 28.9635 32.7962
6837 8 24.9693 28.6125 33.7576
11621 6 34.9345 36.846 43.748
10062 18 35.2134 13.2917 39.5216
6840 8 27.4767 34.9862 37.0397
6843 3 29.6301 25.7116 34.7369
1373 13 44.0481 32.0189 33.432
6831 14 24.9639 15.616 39.4197
10053 16 36.3925 21.9111 39.0815
10064 13 38.3529 7.28879 39.1808
3310 15 42.819 15.7345 39.3569
9692 8 43.5732 23.1123 31.6771
6844 3 32.5788 25.6341 32.9483
6841 11 30.3416 32.4827 37.8422
3317 6 34.4124 16.4387 32.04
3318 1 34.1198 20.0558 30.9167
6829 8 31.388 17.7154 39.5243
9768 13 31.7571 0.125174 41.371
3315 1 39.0664 18.9781 31.8753
9691 13 40.2323 24.8375 32.0837
10060 16 39.7215 13.4177 43.6773
3313 13 40.615 14.6362 34.7494
3314 1 38.3552 17.5999 35.3874
3312 13 43.3984 16.9663 34.0258
10052 8 35.1716 24.6249 41.3913
9694 11 44.0827 26.0606 36.1254
3311 1 43.0221 18.8378 37.2197
9761 16 39.708 1.58021 33.961
9693 13 45.6871 26.0903 32.713
9760 4 36.779 3.37723 35.2746
3308 10 47.3123 11.6262 37.8361
9695 1 43.5086 29.0173 38.6136
3309 3 46.6353 15.3894 38.6697
6842 8 30.1587 29.0444 36.4836
9744 3 49.255 14.7614 30.5594
9745 1 48.3857 11.2546 32.0797
10063 8 38.1736 11.0624 38.669
12504 8 49.7242 2.08744 33.3004
2306 3 32.2164 5.51977 44.754
9696 16 44.4195 32.6819 39.6207
9743 16 49.5082 16.3327 33.8956
9698 6 49.6175 31.247 44.6774
6827 3 30.1837 21.1881 43.4953
12928 10 27.4463 4.77471 31.471
10051 14 38.1215 27.1356 41.3164
1372 3 40.6442 33.8109 33.376
2311 8 44.3263 0.654318 41.3937
9742 1 49.2903 19.4487 36.1678
9759 13 34.6915 3.3369 32.532
1374 8 46.6344 34.3634 32.2757
11622 6 36.3192 35.7048 40.2783
10043 16 30.1252 26.7283 40.9619
1371 16 42.1076 36.6129 35.8529
9746 8 45.4335 8.92308 33.2388
9747 16 42.1379 8.64754 31.968
10042 8 27.5892 28.8709 43.0574
10054 16 39.184 20.0585 40.9726
9697 6 46.8535 32.8348 42.7835
14212 11 68.4057 15.4705 41.6494
14330 1 73.4559 6.52123 44.3154
13002 8 53.3293 21.1351 32.8881
11646 8 71.3413 25.7975 32.5615
11754 1 73.3743 12.8074 31.3372
101 14 64.8024 35.8708 43.0882
11769 6 72.5186 27.7062 40.6821
14333 1 68.3262 4.83959 37.7332
11642 3 62.7127 33.234 30.8591
2556 3 57.8995 1.69477 43.5422
9730 8 57.5782 32.1457 44.2953
11755 1 73.7386 16.6069 30.6902
11767 1 67.017 32.0654 37.3462
11651 16 71.8783 21.8455 41.0953
14214 2 71.4011 11.9561 37.3655
3307 16 50.2811 10.5291 40.3343
12503 13 53.1119 0.503084 33.87
12505 13 50.676 5.53365 34.5793
12506 11 53.2602 5.84644 31.8508
14331 16 70.3756 4.98319 42.483
9734 8 57.895 33.6675 33.538
14334 8 68.9261 1.35878 36.3121
14332 3 66.9045 3.64029 41.066
14211 6 64.8084 16.9529 42.2904
11758 16 69.8031 18.0025 33.6667
9731 16 56.1956 31.0199 41.1072
14338 8 58.6252 4.10438 31.3111
14335 16 65.148 0.553214 36.4484
2555 16 60.8786 0.628559 41.1586
13001 1 50.1612 21.3582 31.2044
3297 13 73.3685 5.59664 33.7735
9738 8 50.2861 31.4454 36.5418
13012 8 56.2176 17.8204 40.9545
11763 13 65.7109 25.9211 34.8771
11656 3 70.9736 33.6655 42.9093
14337 16 59.4913 4.92632 34.9531
11759 16 68.1832 20.8061 31.6226
3298 8 71.4126 8.47161 32.6017
9740 8 52.2918 25.4455 39.2106
14210 2 63.1126 19.833 44.1574
9733 16 57.8249 30.1095 34.8578
13013 16 55.651 21.4986 40.0868
13011 14 52.6001 16.1095 40.9626
3300 8 63.8469 9.08908 34.1219
12502 13 52.9228 1.55614 37.5281
3299 8 67.7884 9.69112 33.6494
13014 16 56.6628 20.9899 36.7545
11652 19 69.4597 22.2694 43.9884
13009 8 53.9453 10.9945 35.3657
2557 13 54.0081 2.08498 43.6784
14213 7 68.5053 13.8831 38.1795
9735 1 55.2554 32.0477 30.9356
9737 10 52.2672 34.6713 36.463
9736 1 52.8148 34.3336 32.6487
3302 3 61.4693 7.25932 40.7159
11764 8 62.776 25.0749 37.1088
11655 16 67.8762 31.377 44.0247
13010 8 52.7145 14.0787 37.7083
11768 16 70.2998 30.3574 38.5134
9732 3 58.1009 29.1854 38.445
11761 8 65.4648 20.6699 36.7183
9741 16 50.6682 22.4413 38.0194
13016 4 60.4756 15.6912 32.7901
11765 13 64.4519 26.0707 40.3657
13003 16 53.5522 17.8246 30.9224
13008 3 56.9329 11.5233 33.1322
13015 13 58.3329 18.2617 34.4091
11762 13 67.8915 23.5915 36.963
11760 18 64.6418 20.5012 33.0388
11766 11 64.7748 29.6185 39.1308
3303 14 61.1956 7.01009 44.736
14336 8 61.9978 2.65741 36.7389
3301 13 62.3439 9.116 37.5928
3305 1 55.3522 10.2872 44.0814
9739 18 51.3863 27.8985 36.6023
3306 14 53.3428 8.24966 41.148
11757 6 68.3809 15.3032 31.3403
9699 3 51.2413 27.8095 45.0103
2558 8 51.4017 4.52099 44.9401
11653 16 68.5622 26.0679 44.6362
11644 1 68.9736 30.57 29.9288
13007 14 54.9883 12.3357 30.0662
6879 13 7.5797 31.5087 53.6639
13854 6 12.2751 2.53824 54.6847
6875 16 12.669 32.4969 49.6649
6877 8 12.8375 30.2173 54.9711
6876 18 12.3697 29.0975 51.3965
7420 6 4.89436 28.8116 46.8609
6878 13 10.5656 33.2554 55.2659
6092 8 16.9499 15.1558 55.6421
6874 16 15.9869 33.5894 51.2348
4999 1 10.5741 17.867 50.4698
7410 14 22.4161 12.9855 54.9426
6086 8 3.5459 14.9359 51.8834
6873 6 18.0067 31.416 48.7996
5002 8 18.4065 23.8942 51.8014
7411 8 21.0849 16.4138 53.8372
6870 1 21.5059 35.6972 48.0314
2611 2 0.838295 33.5714 46.0905
6872 11 16.6889 33.6715 45.8859
5001 10 15.4929 22.0076 50.2946
5000 1 14.2062 18.4389 49.7159
6091 14 14.5031 16.8732 57.9965
6093 3 14.9539 13.3499 52.9182
9655 3 0.0748945 23.8367 49.0681
6880 8 8.03645 28.6383 56.0845
11153 3 13.2313 0.243148 47.9
7409 2 23.1586 10.5457 52.4658
5004 8 22.1859 24.096 57.0887
2610 6 3.7331 36.0176 46.2717
9656 3 1.37787 20.5825 48.2518
6106 8 22.6055 0.03435 54.0598
6089 8 10.8849 12.4162 58.5988
5006 1 20.2209 30.7398 59.4936
13853 3 9.59342 0.575554 52.5595
13857 13 17.4644 5.15759 51.7743
6104 3 22.8818 1.97664 49.2191
6088 6 9.3695 13.7283 55.2379
5003 18 21.2929 22.7158 53.8336
6871 1 17.8269 36.8644 47.744
6094 16 14.7806 12.1246 49.4543
6103 3 23.0973 4.4151 46.4367
13858 6 17.8234 6.57589 55.1655
6087 3 6.7047 16.2359 53.493
6083 8 2.82688 21.0769 55.3944
6084 8 0.261412 18.2635 54.4018
6081 3 2.96225 26.9403 53.9226
9202 16 1.31508 9.0799 53.2903
13856 3 17.6572 1.32638 51.8861
9183 16 1.47634 23.525 59.1623
6082 15 4.50912 23.6696 53.0491
7416 8 15.7015 24.829 45.0504
6080 8 1.01745 30.19 54.584
11152 10 10.2779 1.44678 45.6328
6105 6 23.2218 3.63088 52.4918
4998 8 9.57659 14.1634 49.4643
5005 16 20.4247 27.2127 58.0233
9203 2 4.64472 7.14368 54.4941
6095 2 15.0963 12.6244 45.6454
4996 3 5.28572 12.491 46.7572
7421 8 7.62784 31.5243 45.6694
9191 8 3.70983 9.75945 59.3347
9204 8 7.42507 5.48175 56.7821
11154 15 16.5325 1.20773 46.0754
13859 2 14.6908 7.9468 57.3388
4997 16 6.70218 15.8956 47.6776
6881 13 7.83676 30.7411 59.2382
9190 15 2.49961 13.4783 58.3932
7413 3 19.9275 18.0675 46.8461
2609 13 7.21662 36.0372 47.8194
6882 11 4.31884 31.7664 58.3487
7412 8 21.0264 17.9134 50.6474
5007 16 17.0952 32.1139 57.7534
6079 8 1.8104 33.4629 53.3623
6824 8 25.4825 17.7873 51.982
6825 14 26.314 17.7926 48.3154
6819 8 25.5289 26.4842 50.9188
2305 8 29.3133 3.6759 46.2367
10048 3 40.9885 32.1218 45.4408
2301 16 37.9329 2.81916 55.2362
6823 8 25.8703 17.0125 55.7833
6822 15 28.5228 19.5158 55.8709
10058 12 39.218 13.6997 50.1741
6821 3 27.4621 22.7637 54.4837
7408 8 26.1045 8.42545 51.6958
13227 1 26.7269 10.7271 57.7692
2302 8 34.8315 3.50777 53.1826
7407 16 26.6218 8.47052 47.7789
2564 8 44.1966 1.46572 50.2137
10056 4 42.8169 17.3718 45.7961
10045 16 34.6021 30.2784 45.6009
11616 8 25.8671 34.6985 53.0732
11617 13 27.1539 34.2506 49.5306
6820 8 28.1484 23.3075 50.7427
6809 3 49.3275 26.5324 56.1139
2571 1 43.6468 19.1673 57.4899
2303 15 31.1168 3.84634 52.1086
9704 16 45.5042 17.6583 52.9335
9705 8 47.857 16.0843 50.2191
10057 16 41.5721 16.6066 49.5341
13222 14 37.3973 8.9539 54.9364
6811 6 41.892 26.1423 53.2975
9701 16 48.2986 24.6514 49.1191
11619 1 33.5641 35.1596 49.2091
6818 14 24.9186 29.1787 53.4492
11618 11 30.5607 33.3385 50.8674
6810 2 45.5389 26.0432 54.7944
14724 8 39.6361 33.5544 54.8181
14720 18 45.1074 35.4767 52.1092
14721 8 44.3274 31.9811 53.2996
6812 11 38.5994 24.1832 53.2305
14723 13 42.057 35.3973 57.0671
10046 8 36.9328 31.1529 48.7638
10047 14 39.0015 34.1449 48.2276
14719 16 48.0047 36.2782 54.4771
11620 16 32.1784 36.8606 46.0061
2567 16 43.1811 7.60215 56.6052
6813 7 35.4116 25.8136 53.6122
6815 16 32.7751 30.543 57.4869
6814 2 33.2445 28.7132 54.2386
14725 13 39.1384 30.5791 57.121
9706 3 45.8559 12.8489 50.1298
14722 13 44.2915 32.3094 57.0901
2572 13 40.1539 17.8928 57.3703
13223 16 35.1001 8.7893 52.1302
13224 10 32.7248 11.8378 51.9766
13225 3 29.0405 11.9829 53.2844
2565 1 45.6431 1.78104 53.6305
2566 14 45.9073 5.23483 55.3002
10059 16 38.7095 11.5811 46.9329
2569 3 44.6097 14.0969 56.8469
2304 16 30.2193 1.16891 49.1414
2308 6 38.7891 5.71262 47.7709
2568 10 42.9137 10.811 58.1258
6817 2 25.804 29.3012 57.1628
9702 8 48.8688 21.1713 50.2891
13226 15 29.1671 13.4653 56.8819
9703 15 44.9796 20.7403 51.2442
13228 13 29.2657 8.01214 57.6103
2307 3 35.1377 4.85691 47.1925
2559 8 47.8706 3.36617 45.2075
13221 1 36.7633 12.5018 56.422
9707 3 48.5023 12.2297 47.2029
2560 8 48.6879 3.13566 49.0732
6816 8 29.2004 30.1282 58.888
116 1 49.4783 33.435 59.4151
10049 8 40.6303 28.5295 46.2348
2575 1 38.0482 22.3319 59.1836
10050 8 37.7638 26.2524 45.1316
2309 3 41.707 6.96262 45.6633
14310 8 58.5327 2.58412 55.7987
14324 1 64.2275 2.04017 47.5082
14709 13 65.27 36.2996 52.0894
11657 16 73.0328 33.4368 46.015
14287 3 55.2062 24.8597 58.1834
9710 6 55.1999 19.2979 49.2742
5576 1 64.6025 0.175784 56.2622
14209 3 60.1451 20.7148 46.0332
3304 8 58.7537 9.63402 46.1965
14710 1 63.0693 33.5744 50.6668
14713 6 58.4006 36.0798 50.7425
14311 16 59.7184 0.835635 58.8705
14482 8 74.0711 27.9725 47.7363
9728 19 62.1528 29.9413 46.4953
14718 16 50.1254 33.167 53.7749
14479 16 72.1472 29.6389 56.2072
14712 1 60.1269 36.7965 54.0586
9713 13 61.5365 14.7066 53.1591
9714 6 60.7613 11.0936 52.8329
9711 8 58.554 20.1268 51.1968
9717 15 68.1586 4.7559 54.708
9718 3 71.3587 5.64549 56.4736
14711 1 61.3159 33.1353 54.0541
14325 10 67.2743 3.67816 49.2929
14714 1 56.5992 32.9741 51.9839
14327 18 67.8011 10.5468 48.6984
5999 3 61.6729 21.3924 58.285
9709 3 53.2025 16.8495 47.4377
9708 6 51.9302 13.2241 48.1216
9719 6 71.3913 9.01116 54.3375
11654 8 69.6939 29.28 46.462
9723 16 72.0945 21.0375 50.3657
9724 8 68.5334 19.707 49.8033
2561 13 51.2943 0.339433 49.1638
14326 8 68.7605 7.18398 49.796
14291 15 62.6023 27.7399 55.2934
14305 15 55.7078 12.2028 55.9573
14303 2 51.3639 17.3462 56.3295
14328 8 71.0627 11.8692 47.155
9722 8 72.0241 17.4681 51.594
14289 16 56.9847 25.4334 52.4405
14306 3 55.0041 8.52203 55.6785
14292 16 64.2997 27.3644 58.7513
9720 1 70.6605 12.6729 53.6827
14480 3 72.1582 26.8675 53.59
9729 16 58.597 30.6754 47.5824
6001 16 67.0959 19.0468 58.214
9725 3 65.7113 21.7351 50.9703
14290 8 59.069 26.7378 55.2141
14715 1 54.8536 34.7788 54.9304
9716 7 65.1289 6.73118 54.2389
6000 6 65.1848 21.9786 56.8397
14308 1 52.6128 3.55797 53.3907
14707 1 67.4476 31.321 52.2281
9727 16 61.8313 27.3618 49.2799
14304 7 53.1099 14.3812 54.4182
9715 2 61.4541 7.50437 54.4681
9712 3 61.2646 17.6519 50.8345
14717 6 51.4868 34.6687 50.5164
14706 15 69.2864 33.7192 49.9677
14288 6 54.3966 23.6644 54.5657
14705 3 72.004 33.7727 52.7553
9726 3 62.7923 23.9183 51.1503
9721 14 71.8688 15.9368 55.0257
14309 14 55.0028 1.52396 55.0021
14708 13 66.4539 33.936 54.6795
14307 6 53.0769 7.01404 52.5845
9700 6 51.9356 25.9535 48.4842
119 18 59.3047 33.2246 59.3404
5997 6 58.4668 16.7526 59.3153
14329 16 74.1415 9.90605 45.8322
8787 1 15.1951 35.1077 68.6736
5029 8 19.6422 22.0963 66.6225
6628 1 8.60378 17.2691 72.9594
6629 10 6.03872 20.1603 73.3515
5008 3 14.3302 32.3642 60.3242
6627 1 9.03822 13.4716 72.5571
6624 3 11.2084 11.051 64.4032
6625 16 11.9229 14.6135 65.3571
6623 16 14.4474 9.76451 65.6734
6599 3 2.20265 29.5162 72.8795
5012 8 17.8979 23.6728 61.8613
5027 16 18.3205 27.7712 71.0649
6626 8 9.72681 14.4779 68.754
9194 8 0.939883 2.15102 65.0836
5030 18 17.2582 19.2145 66.0953
9181 7 4.40027 25.9892 65.7488
2587 13 23.9978 34.8609 64.7261
6598 3 2.95855 31.0471 69.4087
6597 8 5.62218 33.5341 67.9374
13798 8 5.79762 13.1389 67.2729
5028 16 19.29 24.6955 69.0156
2961 3 19.8589 6.46739 64.0105
5010 8 12.4314 26.9262 62.7953
5011 16 14.2536 23.8041 61.4395
13869 3 1.37563 2.53974 71.0144
9193 14 3.56234 5.10328 64.9984
6146 6 22.4614 3.86208 70.9302
8788 13 15.6144 35.4826 72.3515
6883 1 2.28568 31.5826 61.5387
5009 1 13.0131 28.6134 59.5896
6147 3 21.306 0.87258 68.7794
6145 6 24.1011 5.42459 74.102
6148 6 17.7482 0.317517 67.4071
6622 8 16.1045 13.152 66.8692
9188 8 0.845525 16.9157 62.3433
13863 6 8.22866 0.642546 67.0486
13799 3 3.86067 9.75708 68.2808
6596 16 3.28953 35.1619 65.6457
6621 16 19.7228 12.4746 66.7082
6620 19 22.9322 10.744 67.6521
8790 1 10.702 36.536 70.7837
9205 8 7.72946 4.50922 60.303
9182 2 2.66183 24.5713 62.5085
13797 11 3.87314 16.103 68.859
9179 6 8.81446 21.7133 66.915
2963 6 24.0489 2.18188 60.2304
6608 7 17.0151 8.26116 71.153
9206 8 4.94917 1.90742 61.404
5031 8 17.9148 16.9156 63.2067
2962 2 20.8188 4.19074 60.8906
13862 3 11.4127 2.33138 65.9738
9178 2 8.11736 19.1783 63.8818
6619 16 22.2312 10.9225 71.1753
6618 3 23.0432 13.3825 73.7297
9180 11 7.94007 25.3898 67.3654
13861 15 13.8014 4.67916 63.9388
6595 15 5.16792 36.1985 62.4309
5013 16 20.7327 25.7878 63.4351
5014 8 23.2388 23.1288 63.0985
6611 6 10.0342 3.07039 73.1731
9177 3 9.2176 21.8557 61.1494
9192 8 4.47539 7.11582 61.8736
1277 13 23.9432 35.719 73.973
8794 1 5.65239 33.5422 73.8632
6607 2 17.3057 10.8421 73.8916
6600 6 3.73911 26.2461 73.89
5022 16 23.4073 21.0758 69.4438
6601 3 7.51385 26.3832 74.2492
5032 13 21.6544 16.3085 61.6524
8791 1 10.7839 33.7977 73.4744
5026 12 19.2919 31.045 69.6917
6610 3 13.4386 2.00481 72.3332
13800 3 3.02737 10.5688 71.8568
5025 16 23.2234 31.1102 69.6447
6606 6 15.2924 14.1542 73.0221
6609 15 15.781 4.65586 71.4848
13860 7 14.3762 6.03175 60.4967
9189 3 4.1531 15.0795 61.2306
6090 8 13.6872 13.9847 60.6168
13796 8 0.213429 15.6673 68.7604
5024 4 25.1893 28.0316 69.0886
14301 13 48.5781 21.3945 61.5437
5523 14 36.4779 0.223068 64.8333
1286 8 37.8599 31.4312 74.0175
1284 1 42.1938 34.9384 72.5846
5015 14 26.3351 23.8276 60.5731
13219 14 34.9197 14.7843 63.6516
13238 16 28.9404 2.3879 72.9817
5023 13 25.0482 24.281 68.2207
3000 3 33.4486 11.7835 73.1583
13235 1 30.3858 3.15937 68.1229
2586 13 26.8894 35.2038 62.2646
294 18 46.8183 3.69122 71.5953
295 8 44.0265 2.23907 73.6336
5016 3 28.6975 20.6977 61.5334
2584 18 28.8127 33.1565 67.5202
1285 14 39.573 33.269 70.7101
947 1 46.4998 33.058 70.2252
13234 1 28.6571 6.60426 67.7558
13232 1 32.3044 5.99591 63.5514
943 1 42.0938 28.4045 68.4467
2583 16 28.546 30.1705 65.1424
944 13 45.4066 27.9379 70.075
5529 3 39.5644 12.6566 67.7201
5528 10 37.4197 9.7805 66.1599
13230 1 29.1478 10.3624 62.3164
13216 8 37.2971 15.3117 71.9874
13217 13 37.0414 18.1822 69.4691
2581 6 33.8724 29.1202 66.108
2580 11 32.0357 25.7437 65.3738
2582 16 31.8402 30.7052 63.2649
2579 1 32.9501 25.9752 61.6253
2578 1 36.7547 26.222 62.3054
2577 6 36.9163 23.0072 64.3218
2576 1 35.4316 20.8305 61.5734
2574 1 40.9468 21.1635 61.4143
2573 13 39.8608 17.5616 61.0451
2570 15 44.8474 16.5138 59.8903
942 15 42.9733 26.3614 65.3981
946 1 45.3885 31.9834 66.7101
941 3 42.6689 23.2819 67.7607
13218 3 34.527 16.3286 67.1108
5534 1 48.0997 11.9694 64.4181
5533 13 45.1832 9.56452 64.3975
5527 16 37.0145 7.51081 63.0118
5530 15 42.1323 13.7605 65.0101
5532 13 44.8155 10.0402 68.0499
5531 1 44.6481 13.7496 67.8231
13233 6 31.7645 8.37456 66.4746
939 16 47.6157 17.6471 66.7432
13231 1 28.6185 6.57085 62.6028
2999 16 36.0151 9.26153 72.2718
5525 1 41.6224 3.79116 65.1074
293 8 49.6856 5.88279 70.0272
5017 8 28.2103 17.0414 60.859
5018 8 26.516 17.1638 63.9851
940 10 45.7194 20.9523 67.0021
945 13 47.3266 28.7524 67.0181
5020 8 27.1464 15.2905 70.7537
13236 11 33.1824 4.5193 70.4185
2585 8 29.4691 35.871 64.9803
5021 16 25.1874 18.6375 71.4354
5019 14 28.2081 16.2871 67.2284
13215 8 40.8138 14.5568 73.3882
2294 11 48.1799 1.26494 64.7561
13237 6 30.5361 5.87762 72.9618
1287 16 34.6147 29.498 73.2722
13213 13 46.0035 19.2927 74.3004
949 6 49.4221 35.4141 66.477
5526 14 40.0697 5.19507 62.0855
2964 11 25.1366 0.879308 63.8304
14727 1 36.1578 35.072 62.1855
13220 8 35.211 13.9941 59.8306
14726 11 37.7147 32.8512 59.7726
14300 3 48.1133 25.1399 61.8361
5524 8 38.8864 2.02223 67.1787
1290 3 39.6 25.69 72.6982
115 1 47.1276 35.991 60.6851
13214 8 42.445 17.886 73.3252
2998 8 39.1987 7.27137 73.2798
1288 8 33.675 25.8297 74.2344
13229 13 31.7588 9.85758 59.6292
5607 14 74.1809 19.1462 66.976
5596 8 72.4183 8.53429 70.1623
125 1 68.6404 35.8915 67.1001
930 8 65.5761 23.5514 74.2552
118 8 56.5785 35.2278 61.2974
2380 8 73.9701 32.884 73.0314
931 8 62.3771 23.3415 71.7682
5987 16 53.785 7.04691 73.4344
6007 3 70.4581 10.7911 64.4954
907 3 63.8254 8.13521 71.9483
5598 1 68.6022 11.7955 73.778
5988 18 52.6858 10.7126 73.4147
117 10 52.9872 34.879 60.2717
124 3 71.269 36.5189 64.5038
934 3 53.6186 22.5908 73.5281
6008 6 73.6589 11.9019 62.0175
2295 1 50.1347 2.09553 61.5459
14271 1 70.9205 26.5892 63.9739
5605 16 67.8037 21.1323 69.952
14273 6 71.903 30.1984 68.0775
5538 1 54.454 10.0818 64.5283
14270 1 73.9855 28.7839 63.095
290 12 58.7526 3.79546 70.9083
5546 13 66.4253 4.53979 66.5189
292 16 52.5521 3.69024 68.9312
14274 16 68.3957 30.2524 66.5242
5547 13 67.6002 1.69602 64.2694
6002 8 68.9889 20.8106 60.9423
948 1 50.2165 32.9127 69.2354
938 14 50.8216 16.0311 67.9898
291 16 55.4719 2.0755 70.7537
5535 1 49.9425 9.81046 67.0038
5536 1 49.9451 6.76402 64.6501
14281 13 58.2699 34.8459 70.3968
14295 3 61.5193 24.3289 65.9166
5993 13 60.0743 15.4628 70.656
5550 11 72.547 0.930746 67.0252
14285 6 57.6119 28.8097 63.1108
5990 13 58.5823 10.5939 72.5621
120 8 61.1591 33.8918 62.536
5604 8 65.6194 19.1724 72.267
5606 8 70.9668 19.8613 68.3636
6004 16 68.3481 16.8627 64.8245
14280 8 60.713 33.508 72.9765
123 16 71.2517 34.0598 61.9309
6005 8 68.2617 15.1205 68.1804
122 1 67.4819 33.4967 61.2172
6006 3 67.9844 11.5392 67.0407
121 16 64.8069 32.9344 63.3306
5601 1 71.1627 17.7373 73.398
5992 8 56.3729 14.7953 70.1417
5597 16 70.6044 8.49729 73.3724
937 1 51.6409 18.3162 70.849
14272 11 71.8739 26.302 67.7095
14293 8 65.631 27.389 62.3207
14282 11 55.7015 32.3123 71.4947