#LAMMPS data file

16059 atoms
14700 bonds

21 atom types
1 bond types

-76.056 76.056 xlo xhi
-76.056 76.056 ylo yhi
-76.056 76.056 zlo zhi

Atoms

  1  1  3 0.0 -8.688770 58.970200 -11.847400
  2  1  2 1.0 -5.669660 61.112300 -10.925100
  3  1  6 0.0 -4.748540 62.765000 -7.584780
  4  1 11 0.0 -2.775420 62.561200 -4.870310
  5  1  7 -1.0 -3.238200 61.955100 -1.366980
  6  1  2 1.0 -3.792650 64.136600 1.886770
  7  1 16 0.0 -4.896510 67.656600 1.819540
  8  1  8 0.0 -7.989270 70.267900 1.742090
  9  1  2 1.0 -6.842720 73.528300 0.647593
 10  1 14 0.0 -6.644150 77.386900 0.676755
 11  1  8 0.0 -3.674470 80.361200 0.900140
 12  1  8 0.0 0.105688 79.678400 0.806018
 13  1  3 0.0 -0.359273 83.157000 -0.155673
 14  1 15 0.0 -1.100330 83.503900 -2.340960
 15  1  8 0.0 -3.332240 84.423500 -5.413720
 16  1  8 0.0 -2.981560 84.726600 -8.789670
 17  1 14 0.0 -4.052550 86.458300 -11.854100
 18  1  8 0.0 -6.539540 86.805000 -14.582600
 19  1  3 0.0 -7.121600 88.172400 -17.918800
 20  1  6 0.0 -10.976100 87.936800 -18.376200
 21  1  8 0.0 -12.587800 87.900500 -21.975600
 22  1  8 0.0 -10.961400 88.312300 -24.886800
 23  1 14 0.0 -8.204820 88.586100 -23.344500
 24  1  8 0.0 -9.356830 90.785500 -21.535100
 25  1  3 0.0 -8.858960 93.487800 -21.727800
 26  1 16 0.0 -11.592900 95.608900 -21.955900
 27  1  2 1.0 -10.254800 98.134400 -20.502000
 28  1  8 0.0 -10.650200 99.784400 -17.995500
 29  1  8 0.0 -7.490890 100.403500 -16.250100
 30  1  8 0.0 -7.623700 102.032200 -18.988700
 31  1  1 0.0 -4.778230 102.945700 -18.225400
 32  1  8 0.0 -2.056630 104.541700 -19.948400
 33  1 11 0.0 -1.642260 101.836200 -21.393600
 34  1  8 0.0 -1.896960 99.126400 -22.254400
 35  1  3 0.0 -3.820050 96.484400 -22.665400
 36  1  3 0.0 -1.350600 94.948900 -20.567800
 37  1  6 0.0 -0.463531 96.091600 -17.424200
 38  1  8 0.0 -2.148190 98.965800 -17.720000
 39  1 16 0.0 -5.102600 98.442200 -18.857300
 40  1  3 0.0 -6.016060 95.219500 -18.371900
 41  1 13 0.0 -6.065490 92.873000 -16.519000
 42  1  8 0.0 -6.129630 90.787100 -13.807100
 43  1  8 0.0 -9.811020 89.434500 -14.525700
 44  1  8 0.0 -10.899400 89.734700 -11.607000
 45  1 13 0.0 -8.302800 88.161300 -10.344000
 46  1  3 0.0 -5.779450 89.050100 -8.011850
 47  1 14 0.0 -3.716300 88.757600 -7.018210
 48  1  8 0.0 -5.263730 87.124100 -3.606810
 49  1  1 0.0 -8.530570 88.842800 -2.894340
 50  1 14 0.0 -6.467540 91.498500 -3.563400
 51  1 16 0.0 -7.755760 92.949900 -5.749170
 52  1 10 0.0 -8.260610 92.911500 -9.185630
 53  1  3 0.0 -9.489110 96.458000 -8.102490
 54  1 15 0.0 -6.317600 98.552500 -7.292230
 55  1  1 0.0 -8.222880 99.709600 -4.263100
 56  1 13 0.0 -7.901770 96.490100 -2.455980
 57  1 13 0.0 -4.285750 96.174900 -3.116750
 58  1  1 0.0 -3.763810 99.621700 -1.680840
 59  1  1 0.0 -5.367200 98.559200 1.624970
 60  1  1 0.0 -2.744980 95.823000 2.185240
 61  1  6 0.0 -0.091829 98.528800 1.972580
 62  1  1 0.0 -1.731860 100.788700 4.521870
 63  1  1 0.0 -1.810540 98.134100 7.319240
 64  1 11 0.0 1.990470 97.494000 7.168440
 65  1  6 0.0 2.722320 101.264200 7.834340
 66  1 16 0.0 0.423332 101.066900 10.876500
 67  1 16 0.0 2.742470 98.601500 12.649800
 68  1 18 0.0 5.303390 101.119900 13.934400
 69  1  8 0.0 2.966270 103.507400 15.648700
 70  1 13 0.0 0.657697 101.247100 17.638200
 71  1 13 0.0 3.494180 99.215500 19.123100
 72  1  8 0.0 5.153630 102.422700 20.191000
 73  1 13 0.0 2.234900 103.746900 22.196500
 74  1 11 0.0 2.448590 100.786000 24.510300
 75  1  1 0.0 2.674350 99.433400 26.856300
 76  1 16 0.0 -0.971674 98.082100 26.849100
 77  1  6 0.0 -2.594860 100.098900 27.030500
 78  1  6 0.0 -2.686350 103.024800 25.788800
 79  1  3 0.0 -3.335980 105.269500 28.120600
 80  1  6 0.0 -3.767550 108.122700 27.838200
 81  1 16 0.0 -5.047090 108.169500 25.067600
 82  1  8 0.0 -7.094500 105.648300 25.087700
 83  1 15 0.0 -7.260020 102.360000 25.774600
 84  1 16 0.0 -7.436730 101.290700 28.348600
 85  1  8 0.0 -5.264070 101.594900 30.517800
 86  1  3 0.0 -5.495000 98.386700 31.116600
 87  1  3 0.0 -5.940010 96.796900 28.859600
 88  1  6 0.0 -4.537260 93.879000 29.232800
 89  1  3 0.0 -2.788100 94.028400 26.168400
 90  1  6 0.0 -4.703540 95.453100 24.239800
 91  1  8 0.0 -5.898740 98.229400 24.577100
 92  1  3 0.0 -8.887100 97.978500 25.252400
 93  1 13 0.0 -11.206100 98.053300 25.487200
 94  1  6 0.0 -13.750800 95.987600 25.975400
 95  1  2 1.0 -14.853100 93.543000 25.893000
 96  1  7 -1.0 -14.326900 90.422100 25.654500
 97  1 15 0.0 -15.957000 89.273900 23.158900
 98  1  3 0.0 -15.806400 86.779400 20.422100
 99  1  6 0.0 -14.155800 85.039400 19.005100
100  1  1 0.0 -10.610500 84.642900 19.226300
101  1 14 0.0 -10.021100 85.469000 22.213000
102  1  8 0.0 -10.518900 87.614300 24.449500
103  1 16 0.0 -10.164500 88.031100 27.507500
104  1  8 0.0 -7.844230 85.792200 26.545800
105  1  3 0.0 -5.368460 87.236300 25.345300
106  1  3 0.0 -5.341060 88.094900 22.650200
107  1 16 0.0 -3.335900 90.669800 23.021500
108  1 19 0.0 -2.453720 92.547700 20.830200
109  1 16 0.0 -1.835670 91.841600 18.132500
110  1  8 0.0 0.318500 92.351900 15.867600
111  1 16 0.0 2.266740 93.938500 13.287800
112  1  3 0.0 0.287372 95.467400 11.128900
113  1 16 0.0 -2.096350 97.501900 11.832100
114  1  8 0.0 -1.879160 100.328800 13.935000
115  1  1 0.0 -3.681260 101.475000 10.113900
116  1  1 0.0 -5.151130 101.336300 7.330040
117  1 10 0.0 -6.206210 101.916700 4.734300
118  1  8 0.0 -4.234930 102.374400 1.803040
119  1 18 0.0 -4.131300 105.463400 0.620786
120  1  8 0.0 -7.265500 105.347100 1.585850
121  1 16 0.0 -8.195470 102.286200 0.116524
122  1  1 0.0 -7.194850 103.327100 -2.587400
123  1 16 0.0 -6.848740 106.213500 -3.646140
124  1  3 0.0 -9.380220 106.281100 -6.050620
125  1  1 0.0 -8.085930 106.876000 -8.619410
126  1  8 0.0 -8.680070 109.807000 -8.829280
127  1 16 0.0 -7.022240 110.276400 -5.547080
128  1  8 0.0 -7.245500 112.796200 -5.750060
129  1 16 0.0 -7.061820 115.901400 -6.424910
130  1  8 0.0 -6.369550 116.019400 -3.074300
131  1 14 0.0 -3.853850 117.303800 -2.224700
132  1  3 0.0 -1.772110 118.248600 -1.733680
133  1  8 0.0 0.454572 119.307200 -3.144860
134  1  8 0.0 2.127520 119.738000 0.109512
135  1 14 0.0 0.812609 121.801400 1.837270
136  1  8 0.0 -0.161845 120.508100 3.970980
137  1 16 0.0 -2.946050 118.440000 2.939900
138  1 16 0.0 -5.857900 117.650900 2.332140
139  1 13 0.0 -6.263280 114.797000 1.639960
140  1  4 -1.0 -6.971200 112.487700 2.517020
141  1 16 0.0 -4.969680 110.268700 3.023770
142  1 12 1.0 -2.010200 109.761500 2.522100
143  1 16 0.0 -0.854134 112.389900 2.664450
144  1 16 0.0 -1.609200 114.526400 1.156760
145  1  8 0.0 0.720381 116.615100 1.741830
146  1 18 0.0 2.175990 115.759100 4.431060
147  1  8 0.0 4.019340 113.709000 4.651280
148  1 13 0.0 6.222440 112.229900 6.006210
149  2  3 0.0 11.572000 -63.429400 6.183290
150  2  2 1.0 12.275700 -62.419800 3.759360
151  2  6 0.0 11.593800 -59.684100 2.408120
152  2 11 0.0 10.471700 -58.022700 0.555090
153  2  7 -1.0 9.431480 -56.524100 -2.199230
154  2  2 1.0 8.304910 -57.423100 -4.848220
155  2 16 0.0 8.100380 -56.045500 -8.035870
156  2  8 0.0 8.572870 -54.254600 -10.936100
157  2  2 1.0 8.869240 -54.025300 -14.372600
158  2 14 0.0 6.192170 -52.624900 -14.742600
159  2  8 0.0 6.849010 -50.663300 -11.950300
160  2  8 0.0 8.720230 -50.585400 -9.391800
161  2  3 0.0 8.022100 -47.295900 -9.076660
162  2 15 0.0 5.329740 -47.368800 -8.886980
163  2  8 0.0 2.449570 -47.944000 -7.935560
164  2  8 0.0 -0.495444 -45.894700 -7.060810
165  2 14 0.0 -3.309680 -44.417500 -6.447400
166  2  8 0.0 -3.021180 -43.755100 -3.158670
167  2  3 0.0 0.245771 -42.917700 -2.469780
168  2  6 0.0 0.004990 -40.547500 -1.983250
169  2  8 0.0 -0.033546 -37.867500 -2.892820
170  2  8 0.0 2.414500 -35.875100 -1.877700
171  2 14 0.0 4.890100 -36.181500 -0.223849
172  2  8 0.0 3.250800 -38.976100 0.518881
173  2  3 0.0 3.421860 -41.961100 2.013410
174  2 16 0.0 5.764800 -43.863500 2.543600
175  2  2 1.0 7.589540 -45.068800 4.793400
176  2  8 0.0 10.577000 -45.700000 4.434500
177  2  8 0.0 9.871410 -46.248100 0.757634
178  2  8 0.0 7.145840 -45.452100 -1.663030
179  2  1 0.0 6.398290 -45.284300 -5.118760
180  2  8 0.0 9.260790 -46.115500 -5.228090
181  2 11 0.0 10.858600 -47.175300 -3.649710
182  2  8 0.0 12.209700 -50.308200 -2.228670
183  2  3 0.0 14.404700 -51.629300 -3.168260
184  2  3 0.0 14.176900 -54.111500 -2.069830
185  2  6 0.0 14.611900 -55.420400 0.087247
186  2  8 0.0 15.160800 -57.052000 2.133360
187  2 16 0.0 16.098000 -54.104600 4.324200
188  2  3 0.0 18.511000 -53.509500 2.298880
189  2 13 0.0 19.563800 -54.490200 0.070512
190  2  8 0.0 18.939400 -53.101700 -2.618980
191  2  8 0.0 21.816000 -52.326000 -4.190090
192  2  8 0.0 22.290900 -48.847900 -4.392450
193  2 13 0.0 20.638300 -46.549400 -6.252190
194  2  3 0.0 20.472400 -44.966100 -3.478500
195  2 14 0.0 18.388600 -42.345000 -3.514470
196  2  8 0.0 19.827300 -41.280200 -1.225100
197  2  1 0.0 21.317000 -38.101700 -0.040509
198  2 14 0.0 21.290200 -37.919600 2.790290
199  2 16 0.0 18.574200 -36.172500 4.074550
200  2 10 0.0 18.185900 -37.339300 7.148860
201  2  3 0.0 15.254100 -39.420900 8.677770
202  2 15 0.0 14.430700 -42.254700 6.154820
203  2  1 0.0 10.824200 -41.378600 6.787040
204  2 13 0.0 10.956800 -38.214100 4.861730
205  2 13 0.0 12.642500 -39.731900 1.958650
206  2  1 0.0 9.945590 -42.349900 1.797170
207  2  1 0.0 7.255440 -39.654700 1.463230
208  2  1 0.0 8.823510 -38.301900 -1.769040
209  2  6 0.0 8.424840 -41.775600 -3.241820
210  2  1 0.0 4.761290 -42.103600 -2.327770
211  2  1 0.0 3.687220 -38.898500 -4.193990
212  2 11 0.0 5.147160 -40.050500 -7.561570
213  2  6 0.0 2.990850 -43.299000 -7.481950
214  2 16 0.0 -0.078227 -41.103500 -6.875100
215  2 16 0.0 0.255725 -39.441200 -10.297300
216  2 18 0.0 -1.324960 -42.215800 -12.389000
217  2  8 0.0 -4.543200 -42.623200 -10.477000
218  2 13 0.0 -5.750990 -39.068300 -9.967230
219  2 13 0.0 -5.231680 -38.084600 -13.603400
220  2  8 0.0 -7.207600 -41.123100 -14.643700
221  2 13 0.0 -10.314100 -40.290700 -12.644400
222  2 11 0.0 -10.761200 -37.128500 -14.625700
223  2  1 0.0 -10.934900 -36.916300 -17.633200
224  2 16 0.0 -11.990500 -34.629100 -19.349800
225  2  6 0.0 -9.438850 -34.646400 -21.683000
226  2  6 0.0 -8.451370 -31.920100 -20.886200
227  2  3 0.0 -7.808790 -29.183600 -20.841000
228  2  6 0.0 -7.612210 -27.326300 -18.151400
229  2 16 0.0 -5.603090 -27.650900 -15.270400
230  2  8 0.0 -2.454490 -28.079100 -14.807400
231  2 15 0.0 0.832104 -27.627300 -15.800200
232  2 16 0.0 2.789600 -30.149000 -14.105100
233  2  8 0.0 6.466700 -29.260900 -15.366100
234  2  3 0.0 5.030990 -27.636100 -17.865700
235  2  3 0.0 3.768300 -28.456800 -20.287600
236  2  6 0.0 2.002790 -28.108100 -23.207300
237  2  3 0.0 4.017660 -26.483700 -25.493600
238  2  6 0.0 3.381290 -27.506100 -28.174900
239  2  8 0.0 4.352580 -27.687600 -30.559200
240  2  3 0.0 2.982290 -28.214100 -33.251400
241  2 13 0.0 1.540140 -26.486700 -35.804300
242  2  6 0.0 1.213400 -29.140500 -37.839000
243  2  2 1.0 0.281698 -28.438500 -40.679700
244  2  7 -1.0 -1.582470 -27.377800 -43.206000
245  2 15 0.0 -3.703490 -24.566600 -44.364500
246  2  3 0.0 -4.835180 -24.259200 -41.532000
247  2  6 0.0 -2.015880 -23.302700 -39.883300
248  2  1 0.0 0.968611 -23.811000 -40.228000
249  2 14 0.0 1.824890 -23.246500 -43.349100
250  2  8 0.0 3.185430 -22.420200 -46.108300
251  2 16 0.0 5.653650 -24.882400 -45.493900
252  2  8 0.0 8.017980 -24.738800 -44.735300
253  2  3 0.0 9.103220 -21.128500 -43.442800
254  2  3 0.0 6.357030 -19.998200 -43.443500
255  2 16 0.0 4.772300 -18.118800 -42.863400
256  2 19 0.0 3.268160 -16.141800 -41.295800
257  2 16 0.0 4.199360 -16.185500 -38.653600
258  2  8 0.0 7.169960 -18.134700 -39.199300
259  2 16 0.0 9.714550 -18.000900 -40.332100
260  2  3 0.0 12.239000 -18.987100 -39.931800
261  2 16 0.0 14.839900 -18.079500 -39.826600
262  2  8 0.0 17.472400 -19.924500 -39.087800
263  2  1 0.0 16.349100 -21.257500 -42.390400
264  2  1 0.0 13.657300 -20.451200 -44.358100
265  2 10 0.0 12.358000 -18.784700 -46.478600
266  2  8 0.0 11.235600 -19.090600 -49.824800
267  2 18 0.0 9.344390 -16.718500 -50.834200
268  2  8 0.0 7.697150 -15.640200 -53.117700
269  2 16 0.0 4.785150 -16.383200 -53.954600
270  2  1 0.0 4.133640 -16.389100 -57.179800
271  2 16 0.0 4.264980 -17.514400 -60.432400
272  2  3 0.0 2.967040 -18.098700 -63.424800
273  2  1 0.0 1.370210 -17.229000 -66.125900
274  2  8 0.0 -0.848953 -15.874600 -63.390200
275  2 16 0.0 0.177398 -16.329600 -59.904500
276  2  8 0.0 2.428030 -13.841200 -62.148000
277  2 16 0.0 2.941420 -12.981600 -59.095200
278  2  8 0.0 3.888560 -9.959020 -59.394100
279  2 14 0.0 1.952600 -8.998550 -62.271400
280  2  3 0.0 1.225630 -6.397520 -61.082200
281  2  8 0.0 -1.195160 -4.435690 -62.018700
282  2  8 0.0 -4.689170 -3.805560 -63.846200
283  2 14 0.0 -7.230570 -1.669250 -62.415100
284  2  8 0.0 -7.136700 1.277070 -61.358000
285  2 16 0.0 -5.525900 4.070220 -60.084200
286  2 16 0.0 -6.594020 4.767280 -63.585300
287  2 13 0.0 -6.245620 6.645250 -66.430000
288  2  4 -1.0 -5.033330 3.723850 -68.812200
289  2 16 0.0 -8.026730 1.920200 -66.975800
290  2 12 1.0 -10.436400 3.500630 -67.435000
291  2 16 0.0 -11.391800 5.340730 -65.015500
292  2 16 0.0 -10.490100 4.004730 -61.681000
293  2  8 0.0 -10.302000 2.582290 -58.589800
294  2 18 0.0 -10.890600 3.981560 -55.795900
295  2  8 0.0 -14.014200 3.330260 -57.194700
296  2 13 0.0 -17.563300 2.209950 -57.302400
297  3  3 0.0 25.937500 11.788700 28.907600
298  3  2 1.0 23.752800 12.030600 25.821000
299  3  6 0.0 25.517800 14.532100 23.338900
300  3 11 0.0 23.631600 15.621800 20.094100
301  3  7 -1.0 19.927800 16.390500 21.051900
302  3  2 1.0 16.939300 16.725500 18.700300
303  3 16 0.0 14.320200 18.331400 16.266100
304  3  8 0.0 11.919500 21.500300 15.147600
305  3  2 1.0 9.173430 23.184900 12.965500
306  3 14 0.0 12.435500 24.690700 11.491800
307  3  8 0.0 14.389300 20.843500 12.084300
308  3  8 0.0 16.466500 17.870500 11.818000
309  3  3 0.0 16.622700 14.470000 13.640200
310  3 15 0.0 16.292100 10.786700 11.829500
311  3  8 0.0 15.997100 8.483260 8.940640
312  3  8 0.0 12.840300 6.420090 7.613560
313  3 14 0.0 12.448500 5.759110 11.136900
314  3  8 0.0 11.340800 3.673410 14.011100
315  3  3 0.0 7.786480 3.918520 13.727500
316  3  6 0.0 5.258390 5.923110 14.798500
317  3  8 0.0 7.475900 7.610100 17.253100
318  3  8 0.0 7.795140 10.910000 19.453800
319  3 14 0.0 7.061830 8.608970 21.940600
320  3  8 0.0 6.695090 4.967770 20.535000
321  3  3 0.0 3.666040 2.619980 21.163200
322  3 16 0.0 -0.052672 0.885206 21.501400
323  3  2 1.0 -3.327530 -1.131020 20.994700
324  3  8 0.0 -3.516580 -4.972800 19.232500
325  3  8 0.0 -4.382130 -8.461110 17.853500
326  3  8 0.0 -6.901000 -9.804990 15.054700
327  3  1 0.0 -8.176280 -10.222300 11.160100
328  3  8 0.0 -11.608600 -8.504860 9.115330
329  3 11 0.0 -15.563100 -7.262160 7.875970
330  3  8 0.0 -19.387000 -7.099390 6.891070
331  3  3 0.0 -22.135600 -5.818690 6.912330
332  3  3 0.0 -23.970100 -5.221750 4.707380
333  3  6 0.0 -25.239000 -3.618220 2.488440
334  3  8 0.0 -22.641200 -1.812570 1.925190
335  3 16 0.0 -20.013200 -0.287216 0.089602
336  3  3 0.0 -18.731600 -2.939810 -0.590758
337  3 13 0.0 -19.069900 -4.216100 2.703860
338  3  8 0.0 -17.623200 -3.993100 5.262310
339  3  8 0.0 -18.312000 -4.034810 8.985040
340  3  8 0.0 -18.900400 -3.119970 12.286900
341  3 13 0.0 -15.571600 -4.406850 12.590500
342  3  3 0.0 -14.019600 -6.843960 12.781700
343  3 14 0.0 -12.061400 -8.508510 14.206600
344  3  8 0.0 -11.529700 -11.414100 13.764800
345  3  1 0.0 -13.359900 -14.355000 15.475000
346  3 14 0.0 -15.948900 -12.050900 14.982900
347  3 16 0.0 -16.222500 -11.002700 12.331500
348  3 10 0.0 -14.610800 -11.671900 9.665550
349  3  3 0.0 -16.789900 -14.892800 9.997760
350  3 15 0.0 -16.390100 -16.895200 6.693100
351  3  1 0.0 -20.113400 -17.368800 6.875430
352  3 13 0.0 -20.904600 -13.868200 5.940050
353  3 13 0.0 -18.559100 -13.816000 3.089080
354  3  1 0.0 -20.198800 -16.923500 1.738300
355  3  1 0.0 -23.599000 -15.183500 1.654810
356  3  1 0.0 -22.301400 -12.482100 -0.745278
357  3  6 0.0 -21.379400 -15.258900 -3.153050
358  3  1 0.0 -24.786900 -16.920900 -3.050740
359  3  1 0.0 -26.723100 -13.765200 -4.138330
360  3 11 0.0 -24.667300 -13.300600 -7.361140
361  3  6 0.0 -25.609800 -16.898900 -8.565950
362  3 16 0.0 -29.282500 -16.015600 -7.958640
363  3 16 0.0 -29.234000 -13.335300 -10.683500
364  3 18 0.0 -29.601600 -15.638700 -13.700600
365  3  8 0.0 -32.641900 -17.568400 -12.604300
366  3 13 0.0 -35.014600 -14.879500 -11.371600
367  3 13 0.0 -34.554600 -12.687900 -14.437800
368  3  8 0.0 -35.291100 -15.682100 -16.620400
369  3 13 0.0 -38.655300 -16.485600 -15.068500
370  3 11 0.0 -39.977800 -13.137800 -16.160700
371  3  1 0.0 -39.250400 -12.322000 -13.376200
372  3 16 0.0 -39.591900 -11.285400 -10.362600
373  3  6 0.0 -39.045100 -13.667700 -8.803380
374  3  6 0.0 -39.400900 -16.594200 -9.503520
375  3  3 0.0 -35.927800 -17.514400 -7.585800
376  3  6 0.0 -34.107400 -16.626700 -6.061100
377  3 16 0.0 -35.291800 -13.020800 -6.028230
378  3  8 0.0 -32.403900 -13.060900 -8.232400
379  3 15 0.0 -30.880100 -12.239100 -5.519440
380  3 16 0.0 -30.213000 -10.888800 -2.563830
381  3  8 0.0 -30.177100 -7.319080 -0.872949
382  3  3 0.0 -30.275100 -4.191650 1.686060
383  3  3 0.0 -29.967100 -2.213140 3.627660
384  3  6 0.0 -29.497600 1.503900 4.394850
385  3  3 0.0 -32.056800 4.926810 3.519150
386  3  6 0.0 -34.746300 2.421670 1.963280
387  3  8 0.0 -34.350100 -0.995934 1.554340
388  3  3 0.0 -34.837100 -3.893710 2.619000
389  3 13 0.0 -34.564000 -6.684340 0.629696
390  3  6 0.0 -33.557200 -4.443060 -2.042250
391  3  2 1.0 -34.475700 -3.602940 -4.615550
392  3  7 -1.0 -33.051700 -4.151360 -7.305420
393  3 15 0.0 -30.757300 -4.856100 -8.821220
394  3  3 0.0 -28.731700 -3.205240 -10.684300
395  3  6 0.0 -26.771300 -5.308360 -12.181800
396  3  1 0.0 -24.952600 -7.452740 -10.517400
397  3 14 0.0 -27.468000 -9.522850 -8.866900
398  3  8 0.0 -30.449700 -9.374450 -9.104320
399  3 16 0.0 -31.229400 -7.837690 -11.866500
400  3  8 0.0 -33.618200 -4.996560 -11.735700
401  3  3 0.0 -33.477600 -1.814000 -11.906700
402  3  3 0.0 -34.492900 0.122377 -9.923420
403  3 16 0.0 -36.665700 0.136766 -7.162030
404  3 19 0.0 -36.726900 2.847930 -4.992530
405  3 16 0.0 -35.439200 4.359970 -8.095340
406  3  8 0.0 -36.739200 8.168090 -9.483660
407  3 16 0.0 -35.781200 10.877700 -9.921370
408  3  3 0.0 -32.364000 8.398010 -8.663300
409  3 16 0.0 -34.263400 8.184240 -6.363470
410  3  8 0.0 -38.670000 6.490650 -7.075020
411  3  1 0.0 -41.432300 4.861710 -6.025200
412  3  1 0.0 -44.462700 5.300300 -6.087120
413  3 10 0.0 -44.734900 9.168680 -6.446090
414  3  8 0.0 -41.972700 8.224130 -8.760100
415  3 18 0.0 -40.414300 8.551480 -12.228000
416  3  8 0.0 -39.689600 5.620540 -10.712800
417  3 16 0.0 -38.928900 2.799700 -10.038200
418  3  1 0.0 -41.419900 1.473830 -8.847420
419  3 16 0.0 -41.444700 -1.197540 -10.111800
420  3  3 0.0 -42.271500 -3.740520 -13.765600
421  3  1 0.0 -43.239700 -5.119030 -16.839800
422  3  8 0.0 -43.127000 -7.268640 -20.223400
423  3 16 0.0 -41.390100 -6.338460 -22.899500
424  3  8 0.0 -39.054200 -6.140220 -25.177600
425  3 16 0.0 -36.487300 -6.621120 -26.777800
426  3  8 0.0 -35.736900 -4.845160 -29.339700
427  3 14 0.0 -35.439400 -2.314310 -31.057100
428  3  3 0.0 -34.098900 -3.327020 -33.797100
429  3  8 0.0 -34.936700 -6.556860 -32.692000
430  3  8 0.0 -37.599900 -7.920580 -30.687700
431  3 14 0.0 -40.503700 -7.466020 -29.546000
432  3  8 0.0 -42.524000 -7.570550 -26.677100
433  3 16 0.0 -45.822700 -7.370530 -26.345800
434  3 16 0.0 -45.707300 -5.385030 -23.108100
435  3 13 0.0 -43.096400 -2.509260 -20.594800
436  3  4 -1.0 -40.439000 0.090991 -19.850400
437  3 16 0.0 -40.811700 3.486910 -21.057500
438  3 12 1.0 -42.110400 6.774480 -21.971900
439  3 16 0.0 -39.324600 7.237070 -24.069300
440  3 16 0.0 -36.524900 7.782680 -27.006500
441  3  8 0.0 -36.259900 10.138400 -24.406800
442  3 18 0.0 -38.211100 11.558300 -21.852000
443  3  8 0.0 -39.320000 12.732800 -18.663600
444  3 13 0.0 -41.954000 10.349800 -17.928900
445  4  3 0.0 34.540900 -20.612900 55.147200
446  4  2 1.0 35.865500 -22.804200 57.865300
447  4  6 0.0 35.593700 -21.004600 61.384600
448  4 11 0.0 38.264900 -20.135800 64.303400
449  4  7 -1.0 38.756100 -16.177300 66.033900
450  4  2 1.0 39.766300 -12.622400 66.401700
451  4 16 0.0 38.479800 -10.170400 64.049900
452  4  8 0.0 36.051500 -10.091800 61.233600
453  4  2 1.0 34.561400 -11.933500 58.246300
454  4 14 0.0 33.782300 -16.369200 59.155500
455  4  8 0.0 35.242600 -16.975100 63.577200
456  4  8 0.0 36.555400 -19.322800 68.112000
457  4  3 0.0 37.565600 -22.509300 69.012500
458  4 15 0.0 38.692100 -24.764500 71.437000
459  4  8 0.0 37.706100 -27.124100 73.328400
460  4  8 0.0 35.158400 -29.227600 74.948100
461  4 14 0.0 32.523200 -28.848200 78.549800
462  4  8 0.0 31.058900 -26.750000 81.387500
463  4  3 0.0 32.162900 -23.328300 82.403500
464  4  6 0.0 34.130800 -21.158100 83.655700
465  4  8 0.0 36.984900 -20.285900 83.977600
466  4  8 0.0 40.627600 -19.962300 79.344900
467  4 14 0.0 38.241200 -19.767100 77.039500
468  4  8 0.0 36.910700 -20.439400 80.289300
469  4  3 0.0 41.050400 -19.459300 83.366400
470  4 16 0.0 41.343100 -20.487600 86.651500
471  4  2 1.0 41.416500 -16.636400 87.737400
472  4  8 0.0 42.971200 -13.520400 88.759500
473  4  8 0.0 40.212100 -13.146500 90.942700
474  4  8 0.0 42.953200 -15.775100 92.089900
475  4  1 0.0 46.031200 -15.865900 92.727300
476  4  8 0.0 45.385400 -16.547000 95.867200
477  4 11 0.0 43.311700 -13.616700 96.393500
478  4  8 0.0 44.102300 -12.189100 92.836300
479  4  3 0.0 45.323700 -9.982850 90.445500
480  4  3 0.0 42.050700 -9.243310 88.786000
481  4  6 0.0 39.137900 -6.146390 87.798600
482  4  8 0.0 35.734400 -6.403790 87.960900
483  4 16 0.0 31.982300 -7.104980 86.356100
484  4  3 0.0 30.415900 -6.525080 83.320300
485  4 13 0.0 32.276500 -4.796410 79.526700
486  4  8 0.0 31.410000 -1.723940 76.971000
487  4  8 0.0 28.593800 0.966222 77.157200
488  4  8 0.0 32.074500 2.361230 76.497400
489  4 13 0.0 35.467000 0.913732 75.210600
490  4  3 0.0 35.741500 -2.564260 76.373700
491  4 14 0.0 33.692600 -5.176070 73.977200
492  4  8 0.0 32.229900 -6.959280 71.145500
493  4  1 0.0 33.242200 -9.871320 73.225200
494  4 14 0.0 31.453900 -12.722500 72.740700
495  4 16 0.0 29.994200 -13.729100 75.940300
496  4 10 0.0 26.519000 -15.378100 78.012800
497  4  3 0.0 29.281200 -14.692800 80.671400
498  4 15 0.0 31.057600 -18.082400 81.381100
499  4  1 0.0 30.843700 -17.100800 85.008900
500  4 13 0.0 27.197400 -17.699800 85.257400
501  4 13 0.0 27.343000 -20.992800 83.591700
502  4  1 0.0 29.974000 -22.078500 86.063100
503  4  1 0.0 27.614400 -21.334100 88.990900
504  4  1 0.0 25.027100 -23.845300 87.727300
505  4  6 0.0 27.727300 -26.510900 87.895100
506  4  1 0.0 28.728000 -25.727800 91.456600
507  4  1 0.0 25.189900 -26.234100 92.914000
508  4 11 0.0 24.853600 -29.811100 91.532600
509  4  6 0.0 28.101400 -30.917900 93.392800
510  4 16 0.0 26.607600 -29.475800 96.613800
511  4 16 0.0 23.768000 -32.031700 96.603900
512  4 18 0.0 25.712300 -34.985800 98.043700
513  4  8 0.0 27.119500 -33.325800 101.104900
514  4 13 0.0 24.157000 -31.488000 102.589600
515  4 13 0.0 21.841200 -34.496100 102.354500
516  4  8 0.0 24.448300 -36.570300 104.114000
517  4 13 0.0 24.739400 -34.344900 107.165100
518  4 11 0.0 21.132200 -34.982600 107.994900
519  4  1 0.0 20.875800 -32.598800 110.345500
520  4 16 0.0 20.934600 -29.669800 111.951100
521  4  6 0.0 20.526900 -26.465300 112.804700
522  4  6 0.0 19.636800 -23.860600 113.821300
523  4  3 0.0 18.905800 -22.064500 116.638300
524  4  6 0.0 16.433500 -24.172500 117.842100
525  4 16 0.0 15.245200 -26.617400 119.143700
526  4  8 0.0 15.050800 -29.439300 117.211800
527  4 15 0.0 12.387700 -30.064200 117.759000
528  4 16 0.0 11.781900 -33.030600 117.529900
529  4  8 0.0 13.590900 -35.280700 115.429800
530  4  3 0.0 15.685600 -35.916900 117.123900
531  4  3 0.0 15.854100 -33.624700 119.073000
532  4  6 0.0 17.253000 -32.780500 121.112400
533  4  3 0.0 19.608500 -32.874000 123.310800
534  4  6 0.0 19.374400 -34.837600 125.425100
535  4  8 0.0 20.373800 -37.010700 126.966100
536  4  3 0.0 21.538200 -39.804400 125.220300
537  4 13 0.0 24.109500 -38.738100 124.439300
538  4  6 0.0 24.882600 -35.866200 125.136300
539  4  2 1.0 24.341300 -33.930500 127.543900
540  4  7 -1.0 22.806600 -31.406900 127.192700
541  4 15 0.0 20.565500 -30.327200 128.190000
542  4  3 0.0 18.980000 -32.699600 130.069100
543  4  6 0.0 19.792000 -35.061700 131.123700
544  4  1 0.0 19.531300 -35.287100 134.668300
545  4 14 0.0 22.578500 -34.219000 136.850700
546  4  8 0.0 21.538700 -31.982900 134.719100
547  4 16 0.0 23.314600 -31.743000 132.163900
548  4  8 0.0 21.325800 -28.936600 132.104900
549  4  3 0.0 18.874400 -28.902000 133.670300
550  4  3 0.0 17.127500 -31.128200 134.257100
551  4 16 0.0 15.537600 -33.791500 133.363900
552  4 19 0.0 13.618200 -35.674900 132.395700
553  4 16 0.0 11.486800 -36.991300 132.987900
554  4  8 0.0 9.467800 -35.444700 135.032000
555  4 16 0.0 9.185010 -32.291900 135.474500
556  4  3 0.0 11.990000 -32.255500 136.580400
557  4 16 0.0 13.167500 -29.818800 135.799600
558  4  8 0.0 11.350600 -27.847100 136.213800
559  4  1 0.0 9.367890 -28.002800 133.670700
560  4  1 0.0 11.889600 -26.461600 132.352000
561  4 10 0.0 13.620800 -25.100000 130.731800
562  4  8 0.0 16.976000 -25.602100 130.923200
563  4 18 0.0 18.915100 -25.159000 128.643900
564  4  8 0.0 18.311500 -25.718100 125.635800
565  4 16 0.0 20.443300 -27.826100 124.091600
566  4  1 0.0 22.584900 -26.920400 125.638600
567  4 16 0.0 25.760100 -28.317700 124.826000
568  4  3 0.0 25.036000 -31.036800 123.040700
569  4  1 0.0 26.985300 -32.379400 121.308400
570  4  8 0.0 27.010400 -35.658700 121.060000
571  4 16 0.0 26.628500 -38.364500 120.471700
572  4  8 0.0 23.461600 -38.559900 120.113700
573  4 16 0.0 22.894000 -35.399000 120.609400
574  4  8 0.0 23.064100 -32.298000 119.556700
575  4 14 0.0 21.469800 -29.942000 119.844600
576  4  3 0.0 19.312900 -28.382500 119.564200
577  4  8 0.0 18.827700 -27.609600 116.543100
578  4  8 0.0 18.719400 -31.139800 116.190100
579  4 14 0.0 17.463500 -32.411000 114.103600
580  4  8 0.0 16.919900 -29.220900 113.267700
581  4 16 0.0 15.619600 -26.736700 113.728300
582  4 16 0.0 14.878100 -23.389500 113.257900
583  4 13 0.0 12.594300 -23.735500 111.214000
584  4  4 -1.0 11.723700 -25.206800 109.452800
585  4 16 0.0 11.321500 -27.421400 107.597300
586  4 12 1.0 13.371700 -28.630800 105.731500
587  4 16 0.0 14.015300 -30.048800 103.789400
588  4 16 0.0 13.367700 -32.267500 101.816700
589  4  8 0.0 11.224500 -35.552800 102.612400
590  4 18 0.0 8.845440 -37.395700 103.807100
591  4  8 0.0 11.237100 -39.714100 103.183600
592  4 13 0.0 14.757500 -40.437000 104.628700
593  5  3 0.0 -64.109300 14.363700 40.710900
594  5  2 1.0 -65.752000 11.824300 42.749900
595  5  6 0.0 -63.772000 8.417400 43.737000
596  5 11 0.0 -62.678200 5.229890 44.651400
597  5  7 -1.0 -60.570500 2.572380 43.313800
598  5  2 1.0 -57.777200 -0.104606 43.842900
599  5 16 0.0 -54.459700 0.494484 42.921900
600  5  8 0.0 -51.712600 3.200450 43.957500
601  5  2 1.0 -48.242800 3.602760 43.522700
602  5 14 0.0 -44.506700 2.810850 41.271600
603  5  8 0.0 -44.590700 -0.501784 37.610300
604  5  8 0.0 -44.491200 -2.660230 34.752300
605  5  3 0.0 -46.261700 -1.928020 31.480400
606  5 15 0.0 -50.321100 -2.867050 31.854700
607  5  8 0.0 -48.469400 -4.199130 34.954800
608  5  8 0.0 -48.690500 -7.726230 36.531100
609  5 14 0.0 -45.321200 -10.181900 37.313000
610  5  8 0.0 -43.989800 -6.799730 36.167400
611  5  3 0.0 -41.032500 -4.811630 37.831400
612  5  6 0.0 -38.303700 -4.539320 41.305500
613  5  8 0.0 -37.541100 -2.670770 44.181900
614  5  8 0.0 -39.413600 0.293198 45.388500
615  5 14 0.0 -39.924700 -0.194927 49.122700
616  5  8 0.0 -38.609800 -3.059890 48.649900
617  5  3 0.0 -38.469100 -6.570380 49.588500
618  5 16 0.0 -37.811800 -6.734690 45.789200
619  5  2 1.0 -39.094100 -9.971800 45.562900
620  5  8 0.0 -35.576600 -10.378200 46.819500
621  5  8 0.0 -33.069600 -12.735600 46.553700
622  5  8 0.0 -29.989200 -11.573800 44.503800
623  5  1 0.0 -28.627400 -9.052930 41.697000
624  5  8 0.0 -25.533300 -7.662360 41.040900
625  5 11 0.0 -25.997400 -4.344170 40.641900
626  5  8 0.0 -29.043400 -5.371430 39.759700
627  5  3 0.0 -31.880100 -4.384850 38.751600
628  5  3 0.0 -32.441900 -4.643550 34.634900
629  5  6 0.0 -36.784700 -4.837590 33.279600
630  5  8 0.0 -40.666800 -3.188750 32.095100
631  5 16 0.0 -41.164400 -6.552210 32.978700
632  5  3 0.0 -38.870400 -8.011190 30.091100
633  5 13 0.0 -38.553300 -5.066390 28.505000
634  5  8 0.0 -36.482300 -1.954570 29.393900
635  5  8 0.0 -34.140800 1.782160 28.610800
636  5  8 0.0 -34.851000 5.821250 27.517000
637  5 13 0.0 -35.147600 7.601990 23.535000
638  5  3 0.0 -34.719600 7.365430 20.271400
639  5 14 0.0 -35.275100 4.978840 18.172800
640  5  8 0.0 -34.166900 1.904560 19.214200
641  5  1 0.0 -33.698100 -0.888359 22.161400
642  5 14 0.0 -32.910600 -1.398260 25.780400
643  5 16 0.0 -30.027000 -3.085860 27.420600
644  5 10 0.0 -29.351400 -5.547890 30.653200
645  5  3 0.0 -28.991000 -9.138920 32.155700
646  5 15 0.0 -25.192800 -9.945610 32.282700
647  5  1 0.0 -26.162800 -13.310400 30.909500
648  5 13 0.0 -26.896600 -12.046600 27.503700
649  5 13 0.0 -23.770300 -10.097500 27.265700
650  5  1 0.0 -21.817900 -13.199100 28.133400
651  5  1 0.0 -23.316900 -15.072200 25.169900
652  5  1 0.0 -21.912800 -12.547800 22.667800
653  5  6 0.0 -18.454800 -13.331300 24.046000
654  5  1 0.0 -18.817100 -17.066900 23.684200
655  5  1 0.0 -19.590100 -16.965700 19.901400
656  5 11 0.0 -16.364700 -15.029200 19.036400
657  5  6 0.0 -14.169100 -17.806200 20.677200
658  5 16 0.0 -16.022300 -20.379300 18.536700
659  5 16 0.0 -14.640400 -18.891500 15.301300
660  5 18 0.0 -11.183100 -20.502800 15.417900
661  5  8 0.0 -12.221400 -24.067800 15.891500
662  5 13 0.0 -14.981000 -24.579500 13.335000
663  5 13 0.0 -12.987300 -23.019100 10.495700
664  5  8 0.0 -10.116000 -25.319300 11.332800