ITEM: TIMESTEP
3020000
ITEM: NUMBER OF ATOMS
14800
ITEM: BOX BOUNDS pp pp pp
4.2502777484941669e+02 5.7497222515065528e+02
4.2502777484941669e+02 5.7497222515065528e+02
4.2502777484941669e+02 5.7497222515065528e+02
ITEM: ATOMS id type x y z
14642 16 427.805 446.759 425.105
9998 8 443.622 448.539 440.61
11564 6 434.948 451.355 445.458
11122 8 449.383 440.79 425.582
5369 13 431.894 457.657 432.884
10006 6 450.163 436.906 444.621
6666 2 441.517 453.162 449.384
6852 8 457.684 442.483 452.065
14624 8 439.437 453.654 425.108
6673 3 450.386 449.829 435.497
482 8 442.357 429.913 442.481
6255 16 426.652 444.548 439.207
14622 8 437.937 460.287 426.584
9994 6 431.792 444.742 438.759
11140 3 461.605 433.639 432.187
11305 13 432.747 441.389 458.139
9999 15 442.73 448.683 444.123
6254 8 427.306 442.431 436.079
6861 3 446.096 451.908 457.85
6846 8 459.491 439.534 461.674
11557 3 435.955 462.352 438.095
6855 14 453.281 435.792 451.95
1709 16 454.128 437.628 434.555
5368 3 435.458 457.174 434.187
9622 2 457.35 441.525 443.205
10009 13 451.776 428.053 449.327
6265 1 425.79 460.959 446.395
6691 1 454.881 449.135 431.697
6259 8 427.537 453.234 448.996
7402 2 445.125 435.276 453.205
6865 13 449.643 445.92 459.778
9992 16 431.864 438.992 442.152
11106 2 435.106 431.294 434.907
6850 8 455.932 445.706 455.38
11143 8 461.445 426.8 426.289
1706 6 447.715 430.753 437.984
11127 2 457.798 428.888 432.622
7415 8 436.561 433.195 453.545
7411 8 438.656 436.99 442.692
11563 3 435.785 450.819 441.924
8534 3 453.48 460.26 432.804
463 3 429.005 430.156 434.63
6540 8 446.918 459.58 457.588
6253 6 425.103 442.76 432.867
11126 16 456.37 431.749 430.513
6868 1 449.744 440.437 460.493
6860 10 448.522 452.018 454.781
8512 16 447.28 457.337 446.891
6671 8 447.509 447.125 441.223
6857 1 451.93 442.673 453.713
11562 8 438.089 453.517 440.872
7416 8 433.026 433.135 453.729
11302 15 434.765 446.153 458.845
11124 8 452.055 436.869 426.577
3237 16 459.015 452.281 432.101
9628 8 462.506 441.643 429.309
6853 13 455.136 441.832 449.071
3227 18 456.668 459.922 445.291
5370 8 430.339 456.642 429.382
1714 3 450.088 427.309 429.45
6867 1 446.686 442.051 462.184
10002 3 442.318 444.519 450.872
11326 6 425.125 429.818 441.856
1704 16 443.921 430.21 433.547
1707 3 450.723 432.884 437.908
11565 8 436.229 451.33 449.091
1711 15 448.798 437.119 432.709
11104 11 438.972 425.49 434.6
7409 2 442.595 436.612 437.48
10010 6 455.647 427.883 450.111
11329 16 427.834 428.053 449.443
8518 8 444.291 459.012 431.845
461 14 428.134 430.277 428.361
11128 8 457.605 425.061 433.268
9993 6 432.031 442.74 441.986
11306 1 429.766 443.132 456.602
11561 14 441.641 454.589 441.058
7414 15 437.294 431.84 449.844
6692 8 456.928 449.294 428.165
6256 3 427.606 447.872 441.017
5372 8 425.736 460.022 428.763
481 6 441.127 427.914 445.341
6252 3 426.609 439.084 432.294
7419 3 426.896 431.349 459.851
1705 6 446.811 428.582 435.23
6859 16 449.025 448.097 454.687
9991 1 429.658 436.351 443.899
6862 15 448.208 450.806 460.93
7408 8 445.5 437.352 439.864
7412 8 438.165 432.992 442.638
6662 2 435.988 456.18 461.017
7404 11 439.245 437.57 450.602
11307 1 429.88 440.786 453.566
6690 8 452.03 449.116 429.101
6546 8 455.97 456.596 461.24
11300 10 440.168 443.311 460.297
14623 18 438.51 456.603 427.219
7401 3 447.736 437.562 454.632
6680 6 445.481 448.051 425.534
6676 8 443.198 454.444 432.43
7403 6 442.371 437.413 453.353
7406 2 443.445 435.99 446.087
8505 8 458.693 458.58 457.502
10003 3 445.075 441.902 450.649
8504 18 461.551 460.194 455.639
3238 8 460.264 448.971 433.049
11116 8 433.862 442.75 426.653
3231 16 457.345 446.456 446.132
5367 16 435.465 454.65 437.014
8507 13 456.333 461.794 453.614
5363 3 425.707 457.672 436.658
7407 16 444.297 434.684 442.633
6251 3 426.546 436.032 434.315
1713 8 448.623 430.487 430.75
11303 1 433.966 445.778 455.177
11309 6 426.163 439.269 457.033
1708 6 453.989 434.965 437.146
8514 6 449.805 462.316 442.582
11308 1 429.389 437.679 455.784
7410 14 439.282 437.208 438.848
8511 1 448.611 459.801 449.397
9621 3 455.388 444.013 441.226
8510 11 451.117 459.882 452.278
6863 1 445.301 448.539 461.729
1702 11 440.934 427.602 428.055
11570 16 426.913 453.63 461.724
10001 8 444.06 445.896 447.931
8506 13 455.935 461.197 457.357
493 1 457.118 427.339 445.141
6854 3 453.367 438.58 449.437
6670 14 448.463 447.542 445.15
10005 3 449.465 440.316 445.364
10007 8 450.543 433.072 444.151
464 6 427.326 427.014 435.162
6257 13 427.795 448.72 444.819
7405 7 440.654 438.103 447.283
10467 16 461.008 458.005 436.335
1703 1 441.426 430.394 430.65
7448 8 444.293 431.116 461.613
1377 13 462.191 461.329 448.276
460 8 427.736 434.016 428.296
8536 1 457.374 457.413 426.739
7447 14 444.72 430.437 457.714
11566 8 434.162 449.303 451.317
6675 8 446.323 455.606 434.278
6864 13 446.037 446.143 458.982
6677 14 440.274 451.471 432.654
11304 13 434.705 442.135 455.089
9995 3 435.057 443.98 437.004
11105 7 438.039 429.205 434.729
11560 8 441.056 456.923 443.749
6672 8 450.695 448.218 439.037
11107 16 435.457 432.571 431.272
8509 13 452.758 457.607 454.798
6665 7 440.497 456.413 451.119
9623 6 460.155 440.722 445.821
6689 8 452.881 446.715 426.478
11569 3 429.812 453.423 459.416
11144 8 459.872 430.24 426.107
8508 8 456.098 458.061 453.054
6664 11 439.281 455.502 454.702
1712 16 449.263 433.315 432.667
11120 6 443.963 441.338 426.449
3228 8 454.858 456.669 446.503
7413 3 436.406 432.145 446.009
7418 8 430.598 432.567 458.658
9626 2 461.552 441.403 437.413
7417 14 431.782 430.229 455.772
13612 16 452.726 426.688 457.41
6856 8 452.78 438.863 454.547
5364 3 427.683 454.799 436.384
9997 16 441.61 445.913 439.377
6548 3 460.975 452.101 459.983
14640 8 428.814 446.538 430.312
6667 16 442.791 450.644 452.184
7444 8 437.04 427.28 461.137
6669 2 448.866 449.934 448.302
6679 3 445.981 449.539 429.03
8519 15 444.774 458.112 428.157
6663 6 437.297 454.529 457.799
6858 14 449.846 445.181 452.102
495 16 462.4 428.003 443.428
6539 2 443.498 460.675 456.459
5366 8 433.902 451.645 435.36
5371 8 426.733 456.206 427.76
3229 16 456.165 453.197 446.003
6674 15 447.199 451.762 434.736
11108 8 436.389 433.766 427.834
1699 13 444.607 431.47 426.006
3230 1 455.213 449.666 447.064
7446 3 440.82 430.131 457.468
3234 8 459.686 450.324 439.223
5365 6 429.983 451.713 435.416
13615 8 458.038 425.908 461.748
7445 13 438.286 430.638 460.13
11327 3 428.666 430.774 442.988
13613 8 451.998 425.878 460.945
9996 6 437.851 446.377 438.447
10008 3 451.667 429.863 445.799
14641 16 428.13 443.822 427.665
6849 13 456.188 444.732 458.782
11301 3 438.482 445.762 457.754
11559 8 441.566 460.563 442.664
10004 6 447.51 440.49 448.498
14639 14 427.265 449.716 430.297
6668 8 445.985 449.496 450.645
494 14 460.425 425.804 446.014
10000 16 441.07 445.577 445.47
11558 15 439.112 460.871 439.78
11556 8 433.114 461.832 440.56
1710 8 451.238 439.635 434.163
3232 3 461.011 447.117 444.44
3236 8 458.38 453.495 435.629
11117 14 436.508 440.206 427.524
6258 8 426.509 449.544 448.215
14638 8 426.773 452.97 431.357
6678 8 442.419 450.926 429.194
8535 6 455.695 458.396 430.299
483 16 441.775 428.055 439.402
11125 3 454.368 434.042 428.058
480 3 439.589 425.158 447.438
10466 3 459.305 460.642 434.532
6693 11 459.333 447.134 426.3
3235 16 456.413 450.741 437.426
462 8 430.738 429.501 431.154
9990 11 426.301 436.732 441.986
8513 6 448.395 459.04 443.982
11567 14 431.231 451.379 452.659
11139 16 459.582 434.158 435.371
6547 3 457.368 453.187 460.854
8517 16 445.649 460.797 435.111
11328 6 429.85 428.936 446.047
11568 8 429.62 450.958 456.224
8520 16 442.905 461.149 426.869
11123 14 451.611 440.245 428.786
6541 8 447.596 461.294 461.213
6848 3 456.655 443.286 462.254
14620 1 433.749 462.322 429.014
6851 8 457.781 446.284 452.315
6845 6 460.211 436.079 462.507
11586 8 441.555 455.042 462.257
6576 11 445.366 442.512 481.886
11606 1 459.652 444.953 481.97
2588 8 449.769 426.889 480.943
6907 6 451.053 433.396 481.387
6903 2 456.305 431.877 489.274
11592 8 449.32 451.768 470.976
7457 13 430.792 440.749 471.385
6571 1 452.609 439.743 486.981
10303 8 439.045 434.467 493.555
10309 15 435.862 453.851 495.014
7084 8 446.412 447.434 498.569
11583 16 444.536 457.574 468.909
6912 8 460.435 434.76 475.072
10302 6 436.692 433.233 496.372
4969 8 431.971 430.787 483.311
14390 8 446.4 448.402 486.316
14406 14 426.468 457.766 484.423
6577 6 446.015 440.26 478.752
7449 1 441.998 433.224 463.759
7425 3 440.895 425.329 468.483
10486 8 456.339 449.805 470.224
9214 8 449.027 427.52 499.333
6586 11 431.079 432.833 478.12
7421 8 430.664 432.127 463.415
2578 1 461.34 427.735 468.233
5166 8 449.816 458.856 494.114
6917 16 447.849 436.38 474.417
4966 8 430.601 433.794 489.644
10490 8 452.031 455.25 477.846
9213 6 445.715 427.566 497.811
14421 6 426.008 432.562 494.94
11588 8 443.371 452.689 468.929
7454 15 431.074 439.27 466.386
6575 1 446.462 439.661 484.254
11295 14 430.186 447.933 463.732
14386 8 441.959 455.742 486.327
14413 13 429.006 445.626 491.008
4967 15 430.51 436.617 487.041
7091 14 432.243 460.607 499.694
14408 10 430.509 453.206 489.082
6568 13 456.111 441.34 490.531
6570 1 455.537 441.575 485.308
4623 3 445.7 458.914 488.912
5164 3 454.228 459.614 489.727
7458 1 427.058 441.003 470.858
5168 8 450.319 453.247 498.615
14379 14 433.547 448.803 473.229
10307 2 437.823 447.342 495.861
6559 14 459.016 455.165 479.447
6922 8 436.668 431.298 471.852
5167 14 449.241 456.683 497.193
6872 11 452.297 434.917 464.118
6905 15 450.865 434.872 487.678
6906 3 449.076 432.664 484.846
576 3 444.39 439.188 494.8
10484 3 457.272 448.312 465.36
14416 1 427.556 442.013 494.937
575 14 446.799 437.278 492.91
14419 1 428.082 436.98 497.587
14410 15 431.99 447.431 487.122
11589 13 441.021 453.136 471.85
11574 8 429.846 462.117 464.664
4625 6 439.215 460.88 486.861
6874 16 448.833 432.367 467.374
574 8 447.989 436.518 496.657
13218 3 457.788 426.4 497.132
14411 1 434.25 445.688 489.589
2585 8 451.971 427.701 476.33
10306 6 436.245 443.604 495.663
6921 16 439.51 428.949 473.57
6581 8 439.86 435.423 476.524
11603 1 455.432 443.226 479.568
7424 8 437.273 425.045 467.506
6587 1 427.403 433.549 478.804
7453 3 433.565 436.277 466.439
577 8 441.302 438.287 496.808
11571 2 426.529 456.217 464.863
10300 6 438.649 427.873 499.478
6572 1 450.396 442.888 486.853
6873 6 451.726 434.813 467.988
14382 16 440.231 449.203 475.402
6582 13 437.834 434.525 479.616
2581 6 458.94 429.933 472.769
11585 13 443.343 458.391 462.679
14393 6 437.651 445.344 483.616
14388 8 444.345 452.07 487.49
14400 8 430.051 461.226 481.688
6567 1 459.023 439.895 488.727
14398 8 435.42 459.588 479.864
14407 16 429.171 455.921 486.753
5171 13 449.92 444.427 494.515
7460 1 428.244 441.543 476.229
14380 8 436.493 446.607 474.28
6563 16 459.495 449.048 491.525
14394 8 436.552 448.841 483.947
14389 11 446.089 449.564 489.786
5165 8 453.249 457.916 492.539
14383 2 442.981 449.97 477.849
6916 19 451.812 436.538 475.564
6920 3 443.253 429.388 473.801
5330 2 426.065 459.631 473.698
14414 1 430.474 442.228 490.248
14392 3 441.164 445.722 484.508
11587 8 441.43 454.368 466.115
6560 8 459.789 455.577 483.154
6545 11 456.433 459.515 464.033
11599 1 449.403 445.616 478.1
11604 1 458.243 442.882 476.962
10311 6 429.717 453.224 495.304
7422 8 434.381 430.517 464.018
10301 3 438.824 430.177 496.335
5169 16 452.428 451.076 496.598
11600 13 451.298 442.925 476.369
6877 8 449.207 427.688 471.01
6580 18 439.866 439.197 476.527
11296 8 432.175 446.215 466.426
11602 1 454.452 446.693 478.244
14397 13 437.171 456.486 479.57
7455 1 428.695 436.927 468.142
10488 8 452.411 455.855 472.17
4962 6 441.198 429.35 487.581
12171 3 458.738 461.466 497.64
6562 14 457.754 451.76 489.19
6565 3 461.541 442.933 492.114
6909 14 457.81 434.504 482.168
4961 6 440.581 429.867 483.937
14378 8 429.804 448.393 473.444
11581 6 437.532 458.123 470.048
6578 16 443.83 437.563 480.387
14381 3 439.763 446.486 472.468
6919 16 443.296 432.922 473.81
2584 18 455.004 429.156 478.041
6564 10 460.838 446.452 493.675
14384 8 442.085 453.448 479.01
6544 8 454.015 461.509 466.211
6585 13 434.315 431.856 476.45
14409 3 433.491 450.727 488.553
11297 1 435.9 446.196 465.606
10487 16 454.339 453.089 470.649
10491 14 452.092 455.283 481.433
6870 1 448.629 438.887 465.758
7090 8 435.407 461.882 497.858
14391 3 443.105 448.758 484.306
14412 13 432.214 446.621 492.558
6561 1 458.2 454.094 486.386
10485 1 459.021 447.521 468.588
6926 8 428.016 425.507 477.627
6557 13 458.834 459.107 473.997
6558 3 461.067 458.156 477.254
573 16 449.485 433.023 495.666
11597 3 446.584 445.253 473.746
4971 3 436.15 425.901 479.396
6908 1 454.205 435.409 481.161
5163 14 456.576 460.498 487.273
10305 13 436.653 440.303 493.511
4622 8 447.576 462.114 489.14
14415 1 431.263 441.667 493.962
5161 16 450.202 462.03 484.204
6583 13 435.001 436.934 478.784
10489 16 453.892 457.596 475.287
6584 8 434.829 435.44 475.314
7461 6 425.802 444.157 474.928
571 16 456.383 433.178 497.945
6579 16 440.718 439.788 480.21
7451 16 439.355 435.088 467.223
6574 1 449.94 439.276 482.597
2579 1 461.373 425.206 471.166
6876 18 452.511 428.37 469.318
10493 8 457.491 460.457 480.49
6927 18 426.473 425.158 481.258
11601 13 453.725 445.252 474.827
11582 8 440.804 458.707 468.691
6904 7 454.811 435.032 487.949
14417 6 426.816 439.151 492.538
14387 1 441.404 453.357 489.369
4963 3 438.126 427.481 488.15
4960 16 441.261 426.325 482.932
4624 3 442.566 460.794 488.899
6869 6 451.482 440.547 463.879
7088 3 439.982 458.242 497.441
14418 1 429.465 436.837 493.974
14395 16 436.925 450.682 480.451
10483 16 460.625 446.815 463.7
14376 6 425.638 454.118 476.44
11594 14 451.73 449.73 466.926
11580 3 434.944 459.291 467.686
10310 3 432.619 455.532 495.077
11593 1 448.409 452.072 467.372
7456 13 430.501 437.061 471.391
2582 16 456.901 426.708 473.174
7423 14 435.057 427.669 465.984
5170 16 450.165 448.074 495.712
11298 14 438.156 443.709 467.377
6924 1 429.606 431.55 472.523
14422 16 427.853 431.899 498.238
6569 13 455.641 444.103 488.116
6914 3 456.735 438.728 472.72
13600 3 425.029 425.254 465.734
6875 16 451.205 429.705 465.978
6566 15 460.782 443.206 488.305
11294 3 427.667 449.854 466.441
6847 16 457.14 440.346 464.637
10304 3 438.31 437.658 491.316
7085 16 445.036 449.606 495.351
6573 6 450.918 442.914 483.082
7459 1 426.406 438.963 474.044
14385 8 441.297 454.705 482.682
6915 16 454.467 438.815 475.786
11590 3 443.584 455.046 474.005
6866 1 448.759 445.064 463.351
7420 6 427.034 432.338 463.252
11596 10 447.437 444.573 469.987
4968 16 432.451 434.231 484.754
10312 1 426.002 454.01 495.891
7450 14 441.764 432.273 467.231
578 8 438.658 438.97 499.546
6918 8 447.079 432.71 473.628
7452 10 437.047 437.707 467.509
11605 6 459.718 446.105 478.351
14396 3 436.845 452.92 477.678
11595 16 450.281 447.222 469.375
6923 1 433.214 430.3 471.283
14377 8 428.105 451.252 475.167
2583 16 457.605 426.577 476.935
6878 13 447.188 425.877 468.342
10308 7 435.88 450.393 497.012
11598 15 449.192 447.832 475.055
11591 14 447.265 453.154 473.84
6925 10 427.921 428.492 474.762
4964 6 435.533 428.576 491.073
7086 8 445.364 453.377 496.454
7087 14 442.388 455.522 497.167
14399 8 431.673 459.243 479.101
7074 8 461.525 452.364 498.528
6910 8 458.004 433.739 478.463
11584 3 446.218 457.682 465.383
5329 3 426.453 457.175 470.687
6913 3 458.634 435.96 472.055
2580 11 462.119 427.91 473.825
6871 1 448.567 435.733 463.515
572 8 453.136 433.301 496.296
7049 13 460.574 462.086 491.46
13219 14 461.346 427.398 495.964
11573 8 426.073 461.953 464.094
4970 3 433.323 427.72 481.412
6661 3 433.631 454.861 463.516
4965 16 433.534 431.546 489.112
6911 16 459.263 436.901 477.813
5172 4 451.016 443.641 498.084
7089 8 436.637 459.001 495.632
11607 1 461.758 441.769 481.325
6902 6 460.191 432.669 489.485
10492 3 454.111 458.881 481.663
11299 16 439.536 443.022 464.043
13599 14 425.04 428.646 468.243
14425 8 427.101 426.277 499.993
570 8 459.667 435.167 499.62
14439 15 427.799 433.003 513.481
10279 16 432.073 452.899 520.489
13212 3 457.133 427.98 508.24
6773 16 440.912 461.23 531.643
10274 1 435.265 461.883 520.19
6738 6 456.047 458.314 537.297
13790 16 449.367 431.284 531.583
407 16 455.828 443.712 524.787
410 8 451.292 446.098 517.382
7768 8 426.844 459.896 524.116
6782 1 426.87 444.908 526.427
435 13 461.808 462.025 524.574
14437 16 426.813 428.801 510.534
8786 15 437.521 456.496 534.607
13767 6 445.088 441.403 529.879
7094 16 439 457.243 505.695
14436 6 430.497 428.027 510.096
419 16 441.072 448.423 526.293
2375 16 425.4 449.667 511.285
8780 8 454.059 447.375 529.758
10287 1 432.122 439.885 518.393
14440 16 425.898 431.028 516.045
13789 3 448.686 430.74 535.284
13198 16 448.4 433.068 509.423
7075 18 460.596 453.204 502.155
13196 8 450.942 436.834 511.209
428 3 445.452 460.004 525.81
12094 3 432.458 460.713 507.77
5274 6 431.331 427.883 523.516
10277 6 431.589 458.028 518.524
7764 18 427.256 460.197 530.496
5296 1 433.352 436.625 536.42
14426 13 427.803 427.625 503.481
10297 8 433.47 431.175 506.776
12092 8 425.564 462.285 506.989
10295 15 435.585 435.882 505.104
5272 3 426.166 430.002 525.388
7092 8 433.973 458.828 502.576
10299 3 436.054 430.209 501.432
10292 6 434.625 435.781 510.947
7082 8 445.588 449.446 503.345
2381 3 426.293 452.364 523.947
13195 14 454.782 437.325 511.152
5282 8 441.042 445.023 532.985
13791 2 449.763 428.009 529.161
417 16 440.16 447.221 519.988
13765 3 448.868 440.373 526.037
6779 18 432.321 448.999 526.47
13768 11 441.706 439.664 529.334
426 8 444.954 452.513 524.746
5178 18 457.653 443.043 511.832
13786 8 440.751 433.714 537.04
5177 8 453.744 443.184 511.838
565 16 460.528 446.396 502.842
7093 16 436.839 460.008 504.693
580 8 439.669 442.434 505.793
563 18 462.485 440.908 506.232
13201 8 446.58 437.816 509.103
8788 13 435.54 451.89 536.87
8846 8 432.683 443.536 504.011
10281 8 433.114 450.743 515.231
8785 3 440.08 453.73 533.626
13174 2 451.916 439.751 535.343
5297 10 434.551 433.062 536.755
10275 1 435.466 458.735 522.434
436 4 461.842 458.977 526.972
6772 3 443.148 459.001 533.525
420 3 443.337 449.42 529.368
6783 16 427.838 446.216 529.933
7081 1 447.368 447.299 505.95
5179 8 458.882 446.642 510.774
406 8 459.019 441.169 524.176
5279 6 433.741 440.809 533.447
13788 8 445.242 430.94 536.285
5270 6 425.703 427.09 530.085
10293 16 435.909 439.045 510.474
430 8 451.485 462.126 526.285
425 16 444.222 451.261 521.436
582 16 434.811 447.914 507.228
13204 8 442.682 434.915 505.97
13203 1 439.997 436.74 507.852
586 12 440.386 454.765 516.263
8849 10 425.802 446.634 501.509
5180 13 455.798 448.813 510.998
408 3 455.072 445.114 521.277
415 18 441.302 440.234 519.442
416 8 440.545 443.785 519.526
7078 1 453.748 454.579 507.902
13209 6 454.402 434.305 504.696
10294 8 434.39 439.003 506.827
6777 10 437.704 452.567 524.33
2384 8 428.099 452.167 532.861
585 16 439.317 452.58 513.269
401 3 459.536 431.358 522.706
7104 13 451.285 461.27 504.494
10288 16 432.008 436.392 519.491
13773 2 440.513 429.045 532.222
13176 11 457.82 435.557 535.814
13771 16 443.5 430.925 527.144
10278 16 434.37 455.391 518.706
14435 3 433.404 425.093 509.405
6769 16 451.266 456.239 534.863
431 14 454.527 460.873 524.871
13206 8 445.606 433.506 501.628
6780 8 429.607 448.115 523.654
13766 2 448.867 442.292 529.556
422 8 449.005 447.85 524.41
8779 14 453.428 445.25 533.017
13772 8 443.223 428.122 529.703
7077 16 457.525 455.409 507.698
7076 8 459.815 456.321 504.693
13175 6 454.704 437.095 535.396
8778 3 454.979 447.678 535.398
8845 16 430.956 442.578 507.031
5175 16 449.132 442.011 507.043
13207 3 449.091 434.684 501.663
10286 11 434.83 441.744 516.796
10298 3 435.226 428.603 504.488
409 16 453.841 448.134 519.394
5176 16 450.379 442.616 510.472
7083 16 443.428 449.186 500.075
12093 3 428.783 461.067 506.212
6787 16 425.877 435.837 524.853
6765 3 462.269 448.66 530.871
6775 1 439.198 460.213 525.814
10282 13 435.4 448.802 517.571
14438 8 426.801 432.427 509.989
566 1 456.626 447.071 502.443
564 8 459.834 443.208 504.877
7095 13 441.937 455.676 503.116
8783 16 445.32 451.242 534.292
10291 3 434.506 432.442 513.141
6778 8 435.858 449.355 524.985
10289 6 432.101 432.992 518.485
8844 3 431.081 441.16 510.591
569 1 459.513 438.752 500.94
10284 8 431.634 445.784 515.316
10285 13 435.047 444.516 514.249
13210 8 457.284 432.658 506.406
423 16 447.335 446.012 521.44
10280 18 430.171 451.652 517.412
8784 10 442.918 453.791 536.32
6768 19 454.084 454.313 533.098
6784 3 427.465 442.957 531.616
587 16 440.02 457.681 513.982
7097 16 444.188 462.037 501.131
6770 8 449.415 459.304 533.37
6781 16 426.907 446.11 522.516
7080 3 448.265 450.186 507.981
2383 8 427.631 454.675 530.094
7096 4 442.164 459.336 502.679
5280 1 434.844 443.679 531.226
411 1 448.733 446.355 514.496
5281 14 437.299 445.727 533.379
421 1 445.914 447.564 527.252
6739 3 454.308 461.869 536.751
8843 16 428.306 440.922 513.067
412 1 445.15 445.083 515.59
10276 11 431.642 458.177 522.434
9215 16 449.38 428.532 503.109
10296 16 432.112 434.833 505.745
583 13 436.438 451.401 506.823
568 3 456.104 439.933 502.696
13213 13 454.033 426.803 510.178
418 1 442.36 446.703 522.951
427 14 446.201 456.092 525.369
13194 8 458.455 437.298 512.279
13776 8 434.192 426.256 534.935
13177 7 461.121 433.541 534.684
12166 8 462.077 456.405 509.021
5276 7 432.723 431.686 529.101
10283 13 432.602 446.573 518.886
13199 2 445.082 431.751 510.289
10290 6 434.535 430.43 516.566
13200 8 444.447 435.372 510.859
13208 3 452.518 432.809 501.818
13197 3 450.615 432.985 512.146
6786 8 425.227 438.839 527.063
6785 1 427.176 439.476 530.172
584 4 437.294 453.139 510.039
2376 8 425.854 452.769 513.123
424 8 446.279 449.024 519.035
13205 11 442.344 432.898 503.116
6776 1 438.495 456.253 525.342
5277 15 431.478 435.164 529.663
581 16 437.83 445.571 506.854
7079 16 451.466 452.249 509.32
8847 1 431.765 445.719 500.993
5283 16 443.299 446.864 535.425
588 16 440.911 459.106 510.478
6774 8 438.18 461.668 529.138
6736 16 461.371 462.479 536.831
414 8 444.33 439.516 516.809
13769 7 442.481 436.141 528.445
589 8 443.235 462.433 509.526
13173 3 448.386 438.062 536.125
5278 3 432.788 438.755 530.774
8787 1 434.887 453.912 533.818
13770 2 441.075 433.453 525.568
5275 2 433.814 428.552 526.55
413 10 444.913 441.663 513.791
579 14 439.473 439.806 503.121
6767 16 456.546 452.769 530.906
402 3 456.851 433.416 520.888
13211 16 457.491 429.233 504.291
13774 14 438.501 425.506 532.189
8782 14 448.318 450.392 531.614
5273 13 428.149 429.142 521.902
13202 8 442.75 439.546 508.171
429 8 448.219 461.329 528.22
405 16 460.141 439.208 520.831
6771 16 446.129 458.727 535.267
9217 13 443.747 426.893 504.98
403 16 455.618 436.028 518.464
404 19 458.601 438.198 517.269
5174 12 448.304 440.813 503.505
6737 6 459.427 459.141 536.037
8781 1 450.958 449.408 529.395
567 16 455.781 443.61 501.747
2382 15 425.82 454.589 526.857
12165 8 462.454 459.537 511.561
6766 3 458.862 450.399 529.64
12170 8 460.843 462.466 500.853
9216 3 447.467 427.488 506.58
8838 3 426.547 441.853 518.441
5173 16 448.196 443.743 501.005
13193 8 462.174 436.417 511.95
13792 8 447.609 426.595 531.69
8777 13 458.584 447.148 537.012
8848 1 429.351 448.576 501.572
5295 1 430.421 437.583 538.581
6684 8 450.511 458.214 573.557
9075 14 449.987 427.797 540.84
14588 16 433.989 451.231 559.832
14576 8 432.006 442.38 562.181
6710 14 438.666 440.909 548.679
12029 13 443.581 434.579 563.172
6708 8 438.966 446.758 551.61
12038 14 439.318 459.029 570.625
8793 6 429.435 456.156 542.299
13784 6 438.29 433.182 542.998
14587 15 433.356 450.066 563.289
12013 3 439.333 427.861 551.888
1695 16 449.481 434.035 572.411
5294 8 427.092 439.307 537.897
1665 6 456.693 458.368 564.124
14564 1 450.537 441.706 552.849
9077 1 447.639 432.33 542.241
11115 8 432.042 443.195 573.568
6716 13 447.825 443.372 544.27
12027 16 436.616 432.217 564.162
6704 8 443.898 451.03 561.842
14799 8 457.499 458.067 554.556
12015 2 433.054 427.714 553.338
1688 1 460.7 435.252 567.934
12021 11 425.701 428.423 563.066
14568 11 445.556 441.056 557.837
12034 3 443.45 449.691 566.982
9081 3 447.879 435.049 555.683
9083 1 442.9 434.441 557.055
14585 16 426.873 448.642 565.342
1645 14 443.204 456.365 559.744
6709 1 439.813 444.637 548.527
14575 13 433.573 440 559.695
6727 16 452.842 461.159 542.186
1644 8 439.951 457.575 559.485
14592 6 426.931 448.07 552.368
8795 1 426.033 451.842 543.573
12012 8 440.452 425.961 548.685
14573 8 436.165 444.881 560.382
12025 6 433.814 433.77 560.075
6717 13 445.052 445.776 544.736
12075 3 445.915 462.198 546.88
14547 8 461.264 459.676 545.713
14560 13 454.719 444.621 548.095
1651 14 451.315 453.779 556.745
1696 18 445.885 434.743 571.31
13780 8 432.237 427.567 545.889
12033 13 443.4 446.527 568.764
13781 14 436.179 427.635 546.314
12000 8 444.969 426.597 560.214
14557 3 460.203 446.102 546.593
9091 1 431.353 437.082 550.929
1652 8 448.576 455.686 554.729
13787 14 442.032 430.053 538.08
14572 18 438.403 442.301 561.989
14595 8 429.446 443.891 549.777
6706 3 440.349 450.261 556.039
9092 11 430.376 434.841 547.935
6700 3 450.799 445.214 566.571
6722 1 450.633 452.972 546.558
12011 14 444.013 426.916 548.3
6681 8 444.952 450.445 573.034
6720 1 447.728 450.159 542.683
6711 16 439.52 441.061 544.92
6713 3 444.783 438.687 546.092
1718 6 456.184 426.035 570.821
14579 1 425.464 441.007 556.481
1638 14 441.526 459.413 553.411
1642 15 434.772 456.874 560.077
5298 8 431.198 432.079 538.05
1689 6 457.907 436.667 565.768
14627 16 434.333 450.458 573.574
5285 3 439.4 446.258 541.745
14593 3 425.564 447.923 548.574
1690 1 456.018 433.382 565.495
6705 13 443.501 450.249 558.264
14566 1 447.37 445.695 555.175
6712 10 441.956 438.564 543.388
6719 1 449.955 448.092 545.047
1647 3 448.491 459.978 563.45
12037 1 437.452 458.539 567.42
14569 6 444.243 444.302 559.584
14599 2 436.046 452.991 547.065
14586 8 429.543 450.406 563.404
6683 14 447.661 455.909 573.601
11118 8 437.364 438.612 574.411
1691 1 455.686 432.891 569.32
8794 1 426.401 454.472 540.755
1648 6 451.852 460.337 561.577
8537 14 456.267 460.374 574.22
9089 6 435.151 432.948 550.391
6215 8 447.33 425.822 566.226
11146 3 461.606 428.524 571.038
14601 15 431.465 459.406 546.866
14597 13 434.688 446.629 549.116
14798 18 459.865 455.002 555.602
9093 6 428.1 432.636 550.232
1698 13 446.081 429.138 573.321
6723 1 451.657 454.289 543.064
8792 1 431.521 452.975 542.461
12068 6 432.827 462.162 537.905
12035 14 442.962 453.457 567.493
1646 8 445.229 458.829 562.254
14644 4 425.942 443.612 570.946
9088 1 436.952 436.289 550.119
14608 8 428.676 454.795 558.254
6714 15 444.227 441.931 548.172
9086 1 439.15 432.876 553.868
13785 8 439.647 434.906 540.228
14602 3 429.161 460.663 549.349
1687 1 461.083 432.441 565.333
6682 8 447.506 452.71 571.462
14562 1 453.582 446.317 552.943
14600 7 433.329 456.006 547.256
14594 6 425.903 444.087 548.204
12039 16 442.758 460.066 568.526
11114 15 433.505 442.032 570.296
9087 1 437.302 436.239 553.952
1639 8 438.282 459.965 552.115
12022 8 427.337 430.446 566.063
1697 8 444.851 431.231 570.393
1641 3 435.879 456.763 556.086
11121 8 446.194 440.566 573.309
1664 3 458.632 461.829 564.109
1692 11 453.973 436.312 569.869
1726 3 457.601 428.029 552.486
13782 8 438.516 430.442 547.371
1649 8 453.57 458.696 558.635
14800 13 457.42 461.556 555.957
6696 3 459.667 441.787 569.679
9085 13 441.882 434.36 551.719
6702 8 449.115 446.676 562.205
14607 16 426.934 455.751 555.135
1694 16 450.615 432.13 569.289
12032 8 441.813 442.876 568.657
1666 8 458.882 456.76 561.971
14556 10 461.975 442.619 546.799
9082 15 445.252 432.237 555.095
5284 8 441.618 446.766 538.887
11109 2 435.488 432.598 574.099
11147 14 462.064 426.926 567.607
12069 16 434.501 461.49 541.374
11998 14 438.672 425.981 562.071
6695 3 460.781 440.509 573.057
6701 13 452.335 444.951 562.824
14571 16 440.007 440.855 558.83
11112 8 428.186 438.253 569.935
9084 13 442.48 436.923 554.318
14563 1 450.446 445.123 551.08
14591 3 430.008 449.63 552.138
6686 16 453.882 454.143 568.406
14610 3 426.094 457.48 564.505
11119 3 441.106 439.678 574.419
11145 13 461.362 432.103 572.609
1700 8 441.288 431.31 574.145
1640 8 436.614 460.417 555.682
6699 16 450.13 443.473 569.891
14549 13 461.53 453.442 546.238
6703 8 447.486 450.165 562.554
14589 8 433.683 448.983 556.829
14558 15 459.164 447.066 550.22
6724 11 449.015 457.11 543.069
12008 6 450.79 426.233 550.844
14577 13 429.658 444.048 559.711
12072 16 440.443 459.094 541.591
1701 13 440.971 427.529 574.229
5289 16 427.49 446.293 541.416
1650 8 454.375 455.034 558.549
12031 8 443.123 441.018 565.766
14598 6 434.645 449.576 546.747
12036 8 439.649 455.537 566.76
6718 1 447.039 447.475 547.466
12014 16 436.489 426.443 554.706
1686 1 461.724 434.962 562.51
12026 8 435.313 430.589 561.327
8789 13 435.539 454.815 539.136
9076 8 451.512 431.269 541.704
6688 8 454.232 449.149 573.955
6697 6 456.055 442.33 568.684
12030 8 443.126 438.423 563.167
9079 16 448.967 434.093 548.88
1727 6 458.528 429.264 549.333
11113 3 430.331 441.034 568.215
6726 16 453.921 458.557 544.78
12040 10 445.73 462.091 570.407
14611 16 428.593 460.102 565.716
14567 1 445.109 442.662 554.351
12023 3 429.135 432.995 563.705
9078 14 447.079 432.907 545.697
1643 8 437.943 455.781 561.911
11110 14 432.684 434.039 572.248
9094 16 426.4 435.858 551.436
14631 16 426.552 457.093 570.236
14590 3 432.366 451.714 554.482
14570 16 441.177 444.156 557.283
6698 8 453.362 442.536 571.313
14596 3 433.218 443.333 550.186
12028 3 440.075 433.077 562.528
12024 3 430.462 432.773 559.847
9080 10 449.725 435.619 552.28
12009 8 449.724 426.221 547.475
6725 6 450.449 458.55 546.413
14603 6 425.805 461.962 548.156
14609 3 427.18 454.98 561.458
6707 14 439.299 450.231 552.641
6721 6 446.986 452.448 545.633
1653 3 449.118 458.91 553.028
14574 13 434.518 442.986 557.523
1637 2 443.525 462.24 554.214
1693 6 451.143 435.387 567.33
6715 1 447.955 442.408 547.859
5299 18 428.916 431.114 540.961
12073 8 444.076 457.946 542.806
9090 1 432.692 434.123 553.037
13783 3 441.158 432.635 545.654
14561 13 455.602 443.469 551.498
14559 1 455.882 448.105 548.679
14565 6 450.372 443.585 556.156
11111 8 430.046 436.418 572.883
5287 16 432.829 442.687 540.906