ITEM: TIMESTEP
957000
ITEM: NUMBER OF ATOMS
14800
ITEM: BOX BOUNDS pp pp pp
-7.4977265677231514e+01 7.4977265677231514e+01
-7.4977265677231514e+01 7.4977265677231514e+01
-7.4977265677231514e+01 7.4977265677231514e+01
ITEM: ATOMS id type x y z
2138 16 -39.5957 -65.949 -38.1186
5109 6 -74.9093 -58.9126 -52.1308
8665 16 -63.5722 -52.0938 -68.6038
12333 1 -52.1311 -43.6803 -43.761
13179 16 -55.0598 -71.4131 -46.9178
2026 8 -63.6071 -74.6144 -59.2484
6415 16 -58.3429 -62.2769 -54.8133
2181 16 -67.3364 -54.6835 -74.7835
13174 2 -50.9814 -72.5617 -59.4462
2172 1 -74.1688 -48.0067 -62.0628
4870 8 -39.2374 -63.7637 -73.4582
2144 8 -41.2101 -66.4842 -48.5284
8661 6 -60.8911 -51.1559 -56.1696
1966 8 -51.2905 -64.3799 -56.9076
6413 1 -63.0822 -65.1859 -60.4522
1960 3 -49.6303 -68.3634 -66.5534
13180 8 -57.3419 -73.7936 -44.6609
1995 13 -39.381 -54.2437 -46.714
4857 16 -44.5105 -42.6529 -59.5243
12311 2 -53.327 -38.4846 -38.4878
8659 1 -63.0556 -51.9931 -50.3823
13177 7 -54.6643 -70.3226 -53.6631
5198 8 -70.273 -52.7332 -41.362
4871 14 -40.0028 -62.8179 -69.6408
2166 6 -59.6324 -43.5924 -72.251
1969 13 -51.875 -62.6329 -46.851
1994 13 -39.1429 -57.8839 -45.6124
5254 11 -37.5429 -47.6704 -43.8181
9041 3 -64.456 -43.2648 -61.6807
6422 1 -69.5225 -67.8907 -47.9011
1983 1 -52.4453 -66.3053 -38.4085
1987 1 -48.609 -61.5511 -41.222
12317 11 -64.3584 -42.8973 -42.6052
6419 1 -64.7232 -67.7314 -46.0023
2167 2 -62.9463 -43.0807 -70.1296
2140 18 -37.5421 -65.1651 -43.4526
12318 8 -64.2219 -46.5827 -41.0956
2013 3 -57.0289 -60.884 -66.0033
13176 11 -56.892 -72.0712 -56.4407
12332 8 -50.5182 -47.0924 -43.1959
1157 16 -74.4322 -74.3161 -68.9903
4858 1 -43.2721 -45.3121 -62.1152
1951 2 -44.2801 -73.1842 -71.9454
6423 1 -70.8962 -65.3418 -45.3811
8663 3 -62.9128 -49.6127 -61.9595
1964 3 -51.4492 -59.1671 -59.7322
2154 8 -51.2789 -44.0587 -58.9831
8667 15 -65.286 -59.1963 -70.7561
12330 3 -52.2055 -51.3888 -39.4638
6418 15 -63.4929 -68.2602 -49.5291
2017 13 -54.4462 -66.5417 -72.9258
5201 8 -71.022 -52.0704 -49.093
8657 13 -65.2459 -46.5336 -52.3719
1950 16 -46.6382 -70.2058 -72.4946
1984 1 -53.8518 -62.8519 -39.3622
1980 13 -56.9557 -68.8927 -37.7934
2142 13 -43.4199 -66.1041 -43.6967
6411 14 -64.8965 -60.6224 -63.3729
6416 10 -60.1354 -63.349 -51.5262
11533 16 -74.319 -64.7744 -67.5796
1970 3 -55.3081 -62.3372 -44.9693
2018 6 -56.216 -70.0688 -73.637
12312 8 -56.8353 -39.9546 -38.59
6407 8 -71.2325 -59.6485 -60.5893
8673 3 -74.4203 -73.5159 -59.8003
5213 11 -59.2199 -40.7019 -50.0192
2016 3 -51.6668 -64.2402 -71.8876
6405 13 -71.0342 -63.9556 -55.3312
2169 15 -68.8637 -44.9041 -68.2213
2003 3 -43.3054 -66.2246 -57.8563
2165 13 -57.7821 -46.4607 -73.9736
8662 6 -60.4159 -51.4379 -60.0751
5215 3 -62.2552 -38.0638 -44.9463
5203 14 -68.3643 -55.6046 -51.6603
1990 16 -43.8474 -59.6542 -41.0851
5210 8 -59.2118 -49.7874 -44.9825
2005 16 -44.8169 -60.3687 -57.4689
12325 13 -61.8771 -58.8694 -40.9753
13178 2 -53.5266 -72.2045 -50.5214
2008 16 -49.0935 -51.7869 -59.4917
2014 6 -55.1127 -60.5853 -69.1869
4883 8 -43.3804 -56.7512 -69.9079
2157 8 -54.4908 -41.7354 -68.3192
8666 8 -63.8692 -56.0392 -68.5015
6420 13 -65.9254 -64.2693 -46.6292
8670 3 -69.5301 -67.7488 -66.9495
5205 3 -63.7914 -57.357 -46.0698
2159 3 -56.5797 -38.1579 -73.9564
6524 8 -69.8765 -42.3255 -37.9048
12313 8 -60.3948 -41.4459 -38.1003
13175 6 -54.7358 -72.2436 -59.5955
7383 14 -47.0548 -55.5256 -74.781
12331 14 -53.5444 -49.448 -42.5933
2180 19 -70.6227 -55.5401 -73.3049
6414 14 -61.0317 -64.3595 -57.2357
6417 3 -60.6009 -65.8449 -48.5497
6525 3 -69.9738 -44.9989 -41.1514
1992 18 -41.2981 -54.4807 -41.2231
5108 16 -74.0407 -56.1696 -49.7131
4856 8 -45.8618 -41.6459 -55.8532
2149 6 -45.5514 -55.4287 -52.3829
12326 8 -58.5093 -59.7942 -39.1871
2146 11 -46.1641 -65.3422 -50.2255
8660 16 -60.3574 -50.2095 -52.663
8656 8 -68.375 -45.5342 -50.472
687 2 -38.8913 -71.8502 -55.5718
1972 8 -59.136 -68.3179 -45.068
5208 8 -56.5239 -56.3112 -45.3871
8671 3 -70.9201 -70.7634 -64.6136
1963 16 -51.1703 -60.1682 -63.402
2009 8 -51.3764 -50.8626 -62.477
8672 6 -72.9019 -73.4885 -63.3863
5209 8 -57.4677 -52.8141 -46.8562
2139 16 -39.1568 -63.1139 -40.6549
2000 16 -39.9649 -57.5108 -53.9124
9043 8 -59.3518 -41.6353 -60.7079
8658 11 -63.9234 -48.2805 -49.303
2156 16 -52.1201 -42.2907 -65.0059
5212 8 -58.2057 -44.6447 -49.3158
6412 8 -65.047 -64.476 -63.5589
6410 3 -65.75 -56.7953 -63.6479
5202 8 -71.0657 -53.4361 -52.7759
7381 16 -52.0238 -53.3073 -70.4372
9045 14 -58.1098 -43.9083 -56.0679
5255 1 -37.6886 -49.2985 -47.2487
2148 16 -44.2704 -58.8681 -51.4423
5251 13 -38.4294 -42.5312 -46.1517
6421 13 -67.6868 -65.1585 -49.7585
6408 8 -67.9428 -58.4425 -58.8826
9044 8 -60.9949 -43.6911 -58.3139
4859 16 -39.9183 -47.2148 -61.2653
8669 8 -69.0031 -64.3038 -69.3588
2015 8 -51.3485 -60.8088 -70.2001
2143 13 -42.3368 -63.6002 -46.3577
6403 16 -71.4922 -69.0204 -52.9141
7370 8 -45.8155 -45.0441 -69.85
2179 16 -71.5598 -51.7861 -73.1429
12334 14 -51.0499 -40.5783 -45.9785
1989 6 -45.5308 -58.3426 -37.8965
6526 15 -70.5413 -41.8064 -43.2638
2007 15 -46.3537 -54.1835 -58.7377
7891 14 -58.8406 -62.7133 -74.44
8655 13 -66.6054 -43.4453 -47.864
2006 8 -43.5431 -56.8963 -58.3341
12327 8 -57.1557 -56.2563 -38.5095
1962 8 -48.8521 -62.7026 -65.238
6839 1 -53.4419 -73.4289 -38.5832
1988 11 -48.8252 -57.9034 -39.9629
8654 13 -65.048 -41.379 -50.6616
5214 8 -60.5721 -41.2572 -46.6235
7368 1 -43.9171 -40.5599 -70.4837
7367 1 -41.5198 -43.6851 -71.9319
4855 18 -43.0815 -40.2043 -53.3802
13173 3 -47.9452 -70.5157 -59.6292
2147 1 -46.3847 -61.4944 -49.7644
9050 8 -61.0496 -38.7029 -57.1206
8653 8 -68.3728 -40.728 -52.3915
4881 8 -41.0917 -51.0394 -73.6618
12310 16 -50.147 -39.1048 -40.1307
12309 3 -49.7616 -42.8068 -39.1268
9046 8 -54.9613 -41.8502 -54.9273
2158 3 -53.8729 -40.2707 -71.7859
5206 16 -60.551 -58.8188 -46.3929
1958 8 -49.3102 -74.41 -63.9724
2141 8 -40.0883 -67.9405 -43.6905
7371 18 -49.1369 -46.101 -71.8771
2153 16 -51.3308 -46.2773 -55.6642
5107 1 -74.0454 -56.2608 -45.7724
688 7 -38.2532 -69.3959 -58.8229
1971 14 -56.2709 -65.9317 -44.9529
2010 3 -54.0194 -53.1676 -60.5921
4874 16 -39.2034 -58.2175 -64.7253
2002 6 -42.2188 -63.8993 -54.7861
1959 3 -47.7489 -71.8195 -66.7811
6424 1 -72.6632 -63.3504 -48.1606
9039 8 -70.9935 -41.4659 -60.6779
1968 8 -53.2561 -62.1718 -50.0742
2011 3 -55.526 -54.9158 -63.8061
2150 6 -46.7502 -51.9043 -51.1611
5199 3 -73.175 -50.66 -43.0189
12319 3 -64.0025 -50.5734 -41.0881
5204 8 -66.2018 -55.3467 -48.4348
8652 18 -70.6344 -39.6126 -49.5839
1973 1 -61.6288 -71.2925 -45.2167
5207 2 -57.2017 -57.9339 -48.4576
1965 13 -53.8899 -61.678 -58.5415
4882 18 -40.7127 -54.5266 -71.9576
2028 8 -69.4304 -73.4706 -57.4646
2020 7 -53.6135 -74.6057 -69.1946
2019 2 -54.5962 -73.3963 -72.7867
1991 16 -44.2578 -56.2805 -42.8493
2152 6 -53.2257 -48.2782 -53.016
5211 1 -57.3543 -47.062 -46.5648
6527 8 -68.3259 -39.1407 -42.2763
8664 6 -64.798 -49.6597 -65.4084
2004 6 -45.7867 -63.3567 -59.8741
2012 6 -58.2173 -57.7086 -64.0415
2155 15 -53.6615 -42.4822 -61.3846
1967 8 -51.6689 -61.9822 -53.7548
12335 16 -47.5717 -38.6454 -46.5259
2170 3 -71.2492 -45.2927 -65.29
2151 3 -50.3646 -50.2681 -51.1561
9047 3 -52.739 -39.9049 -52.7055
7366 8 -38.1166 -44.4978 -70.2084
1952 8 -46.6653 -74.6663 -74.5646
5263 15 -38.2694 -38.0486 -63.3309
9037 2 -73.7595 -37.9966 -55.7926
7382 8 -49.6128 -53.9242 -73.1729
4884 13 -45.4098 -60.0172 -69.6957
1993 8 -38.5986 -57.0162 -41.9487
6409 13 -67.3218 -54.97 -60.5944
8668 16 -65.5677 -62.82 -69.5282
9042 15 -61.1135 -44.3059 -63.3517
9038 14 -72.5988 -40.8898 -57.8087
7369 10 -45.0742 -42.2535 -67.3702
9040 8 -68.2331 -43.5973 -61.6385
1961 6 -48.0327 -65.2034 -67.5909
1975 16 -63.8313 -69.5549 -38.918
6404 3 -69.341 -67.5939 -55.7189
7894 14 -63.098 -70.8645 -74.256
1974 14 -61.5781 -71.3086 -41.469
4872 8 -40.3813 -63.9581 -65.9232
6406 8 -71.8163 -60.6245 -56.9702
2171 6 -74.1928 -48.1015 -66.0957
2145 13 -44.5425 -68.2996 -48.5396
6425 6 -74.5167 -66.5506 -49.0641
5262 8 -38.6442 -41.69 -64.6327
4873 16 -41.7631 -61.2034 -64.0324
2168 7 -66.8912 -42.6388 -70.9868
4854 8 -40.1687 -42.5422 -54.8074
6402 8 -74.3163 -70.6064 -54.6237
2027 16 -67.0218 -73.0994 -60.7349
1949 3 -44.1797 -67.0873 -73.4849
5197 14 -71.5167 -53.9077 -37.7969
9051 14 -64.8089 -37.908 -56.7193
5257 6 -38.4609 -47.9631 -53.9278
7380 8 -54.9508 -51.9975 -72.3932
2001 6 -39.4862 -61.0936 -54.5744
2178 3 -74.6231 -51.4781 -70.8552
12316 8 -65.3451 -42.323 -39.3146
5256 16 -39.7889 -48.1654 -50.4254
5200 6 -72.7209 -49.4829 -46.6019
1986 1 -48.5226 -63.049 -37.6528
5258 6 -37.9105 -50.3266 -56.798
7855 8 -69.5069 -37.5548 -69.3672
7856 8 -66.4634 -37.545 -71.4898
6838 8 -55.5465 -74.6971 -40.8707
12320 3 -63.5803 -51.7362 -37.5365
5196 8 -74.4892 -54.2479 -35.6694
5868 7 -47.3629 -43.499 -19.5231
2673 2 -44.4734 -65.811 -21.0906
5875 16 -46.2944 -44.6227 -4.74568
528 16 -55.4453 -41.361 -9.2837
12315 1 -65.7886 -43.3295 -35.6662
2675 8 -46.1842 -70.6417 -17.6892
6467 16 -72.1562 -71.5868 -18.232
549 3 -72.6921 -73.3164 -1.2243
2105 11 -39.2902 -64.8781 -0.395229
2118 3 -41.8042 -47.6661 -15.6124
12328 8 -54.9988 -55.5751 -35.6116
12307 14 -44.064 -44.3364 -36.3308
522 6 -72.6355 -41.991 -10.574
10803 8 -49.3887 -43.0044 -27.7174
524 6 -67.2578 -40.3811 -7.55291
5870 3 -51.6376 -47.381 -17.5002
12943 16 -48.3997 -71.2726 -28.6702
12322 8 -61.9479 -54.9717 -32.6041
12940 11 -51.767 -66.7653 -29.0845
12945 8 -46.712 -74.4921 -24.1797
6474 8 -58.8201 -71.7663 -10.0624
2113 13 -46.5508 -54.1705 -12.3157
5878 3 -45.0962 -50.3899 -7.03901
10804 13 -50.4253 -46.3661 -26.4205
13008 3 -70.0362 -38.4232 -25.0346
13006 8 -74.6166 -41.0972 -21.9879
6473 16 -60.7301 -70.5563 -13.1744
2110 8 -40.8418 -62.939 -11.4257
12985 16 -73.7918 -57.3973 -2.72327
2666 2 -53.3919 -69.3851 -16.3189
12996 8 -60.9905 -54.8787 -18.828
12995 18 -62.1308 -51.8817 -20.9107
2672 8 -45.1272 -62.1614 -21.3402
2106 8 -41.2516 -66.4491 -3.57431
12994 8 -65.8534 -52.2819 -21.8058
2678 15 -47.457 -66.6621 -9.57644
12298 15 -55.6881 -55.6526 -25.3647
6483 18 -41.735 -74.8375 -3.59626
12302 8 -47.5634 -53.0796 -28.5657
2681 14 -49.6078 -68.0998 -3.59761
12939 1 -54.9976 -68.8606 -28.7547
6387 14 -65.4989 -74.173 -29.2899
1979 1 -55.8272 -70.7097 -34.7515
2679 8 -47.7572 -63.7244 -6.84046
6514 2 -60.41 -38.1109 -26.2289
12937 6 -56.1442 -63.4791 -27.5168
2685 8 -49.4574 -74.7002 -15.7782
12300 8 -51.0343 -53.0386 -24.3698
12989 16 -70.2618 -54.8668 -12.6729
12926 14 -72.0324 -60.5737 -36.4887
2680 8 -50.2024 -64.0601 -4.37578
2121 1 -40.9424 -55.1853 -19.3385
523 3 -69.6699 -39.7848 -10.5064
12933 13 -62.3183 -60.8114 -29.4736
12301 14 -47.4411 -51.5007 -25.0999
12930 15 -66.1501 -58.5918 -26.7072
12303 3 -48.8143 -53.6633 -32.3249
2131 1 -38.9924 -64.4661 -27.0388
2114 8 -43.4932 -54.5863 -10.3957
2682 8 -51.9771 -70.7327 -5.04359
5869 15 -48.6204 -47.5531 -19.947
6464 1 -71.7762 -63.9928 -16.233
12314 8 -62.3543 -41.8657 -34.8195
12942 16 -51.2918 -71.2738 -26.1605
6466 8 -72.7925 -69.8254 -14.6215
12299 8 -54.704 -51.7305 -24.8805
5876 8 -43.1511 -45.8655 -3.52006
2109 6 -38.7803 -66.3905 -11.2858
13004 8 -70.2998 -44.602 -17.7006
12983 16 -71.7813 -64.4785 -2.58633
6477 16 -55.8342 -74.3436 -1.77087
12978 8 -68.1726 -72.6117 -4.7064
12927 16 -68.8064 -60.3339 -34.4797
12324 3 -62.644 -59.2363 -37.1386
12944 18 -45.5271 -71.501 -26.1524
12296 8 -54.378 -57.3111 -31.7724
12990 8 -68.5409 -53.2138 -15.7571
1295 16 -38.7866 -39.1898 -6.60371
12306 8 -43.8677 -45.7013 -33.073
2108 3 -40.3309 -69.4605 -9.05549
2684 6 -50.4072 -74.6641 -11.777
12935 1 -60.9087 -65.7899 -27.8235
12925 1 -74.1245 -61.3851 -33.1273
6472 19 -63.5634 -71.9813 -15.4868
6916 19 -40.751 -42.4954 -26.2252
12931 1 -66.31 -62.3127 -26.1075
2667 6 -53.9866 -65.7468 -15.178
2665 3 -51.9363 -69.1129 -20.0467
6463 6 -70.4689 -64.5771 -19.6872
12304 6 -48.3056 -49.7585 -32.9904
5880 19 -48.0016 -54.6487 -3.89974
1977 3 -60.9274 -71.6855 -34.4841
2676 8 -47.4476 -70.124 -14.3526
2120 8 -42.573 -51.6586 -19.3691
6462 3 -73.7664 -64.3599 -21.8575
5884 3 -54.0399 -48.3054 -0.142771
2674 14 -43.3232 -68.1479 -18.7098
12999 16 -58.798 -49.144 -17.1958
6515 6 -64.1399 -38.4938 -27.967
12928 10 -68.7955 -57.0561 -32.1866
12986 8 -72.7806 -53.8366 -2.09257
1271 3 -41.8208 -38.8475 -18.1495
12987 16 -71.7693 -54.07 -5.96975
531 3 -55.3853 -49.9486 -6.06648
12321 6 -64.5192 -52.1544 -33.7988
2677 3 -45.7596 -69.2292 -11.4771
1982 1 -53.7437 -65.9849 -34.8104
529 8 -54.5187 -44.6307 -7.72007
13000 3 -60.8741 -47.0468 -14.605
12941 6 -50.7899 -67.5514 -25.3776
2134 1 -37.5343 -66.0454 -31.723
2112 3 -46.1467 -57.909 -13.1169
2683 3 -52.0825 -72.1213 -9.32103
5874 8 -45.8789 -42.0894 -7.59195
1272 6 -41.9551 -39.584 -14.1443
12932 13 -65.1361 -63.208 -29.5205
6457 13 -74.1719 -67.7722 -27.629
2116 8 -39.5101 -54.4092 -13.8105
12991 1 -66.4969 -55.3736 -18.3579
6523 8 -71.8242 -43.0269 -34.8749
5194 15 -74.5718 -51.5871 -29.7862
525 16 -65.1203 -42.8294 -10.014
1981 13 -57.2956 -65.6443 -36.0564
12295 8 -51.037 -58.5498 -30.0244
12329 13 -54.5657 -51.601 -36.5164
5871 6 -50.4468 -47.1863 -14.136
530 3 -52.2094 -47.5005 -6.84012
12305 8 -45.4769 -48.2042 -30.8896
548 8 -74.8655 -70.3538 -2.24984
12934 1 -61.1469 -62.3151 -26.2099
12938 1 -56.3136 -66.8284 -25.7335
12977 14 -67.4827 -74.5332 -7.94542
6471 16 -64.5448 -74.4485 -12.6714
12291 16 -41.9018 -57.4683 -30.2098
527 15 -58.3492 -39.3778 -10.7492
2671 16 -49.0477 -61.52 -20.616
13002 8 -65.5665 -49.2306 -16.6148
12292 8 -42.1418 -61.2811 -29.8478
6481 10 -45.6936 -71.2525 -0.220811
12308 8 -47.8849 -44.8084 -36.6839
2670 2 -52.3692 -59.3369 -21.4213
12290 2 -38.7106 -56.5708 -31.8224
2135 1 -39.6381 -63.4302 -33.6529
5872 1 -47.8385 -45.4123 -13.0256
12984 19 -72.7995 -60.9045 -3.61663
12998 1 -56.8915 -52.0465 -16.3592
2668 11 -55.6449 -63.6335 -17.5828
6475 16 -57.2614 -72.3895 -6.36838
12988 3 -69.1813 -53.756 -9.23129
5879 16 -48.042 -50.9112 -5.09897
12293 2 -45.5149 -62.7768 -29.3915
2119 14 -42.3197 -48.0472 -19.5232
13007 14 -73.793 -38.394 -24.4038
5867 2 -50.5753 -41.4285 -19.3548
1978 15 -58.5405 -69.3002 -32.5425
5887 1 -59.0218 -55.07 -1.17788
6915 16 -42.6892 -38.8587 -25.7061
12323 16 -60.1546 -57.6303 -34.6746
12979 16 -64.7012 -72.9963 -2.70175
6465 14 -71.7257 -66.4475 -13.575
2669 7 -54.057 -62.9287 -21.0898
12997 16 -58.5481 -55.2726 -16.2163
5873 14 -46.7107 -42.1033 -11.3501
1291 16 -38.0737 -43.379 -13.36
12294 14 -47.5029 -59.4656 -29.8112
13005 16 -73.8232 -43.1885 -18.7881
12993 10 -69.0526 -54.1601 -22.7739
13001 1 -64.2827 -48.2293 -12.9541
6917 16 -37.8888 -39.6323 -25.7208
10925 16 -58.1413 -39.8035 -4.31867
1985 6 -51.7533 -61.3885 -36.5428
10802 18 -48.7614 -41.4101 -31.0994
2115 8 -39.6445 -55.0864 -10.0938
526 8 -61.3931 -41.8942 -10.0243
532 6 -59.3037 -48.3201 -5.84996
10924 8 -61.8621 -38.8982 -3.66789
2117 13 -39.9058 -50.6602 -14.0442
12992 1 -67.3584 -57.5285 -21.4275
12929 3 -69.3181 -59.1263 -28.9067
12297 3 -54.6228 -55.1053 -28.493
2132 1 -37.6234 -61.3015 -28.7487
1976 10 -64.15 -69.634 -35.3342
5877 3 -42.1519 -49.3266 -4.25064
12936 1 -58.3562 -64.5506 -30.4238
6458 6 -73.991 -63.8122 -27.8376
6482 8 -45.2474 -73.9443 -2.62108
13003 16 -69.5394 -48.3413 -17.242
2111 16 -42.3225 -59.3944 -12.7645
2107 3 -41.8757 -69.3197 -5.75631
533 3 -60.475 -47.6252 -2.2373
10801 8 -51.4159 -38.9246 -29.6869
2128 13 -38.8429 -62.8458 -22.062
1296 3 -41.211 -38.106 -3.71561
13010 8 -65.9915 -38.3796 -20.7388
5866 6 -51.3231 -38.2086 -21.5183
1297 16 -38.708 -39.3684 -1.33249
2122 14 -37.8258 -55.8467 -21.1532
5195 8 -72.7917 -52.1574 -33.1508
13024 13 -47.8664 -38.567 -3.86204
6468 8 -69.7153 -74.7799 -18.3997
6912 8 -40.6822 -37.6929 -32.8098
2127 1 -37.5745 -66.085 -20.7477
12981 3 -68.9083 -68.1474 -0.0448267
5881 16 -46.7147 -53.9782 -0.440711
14074 15 -63.7972 -42.4821 22.8466
10931 16 -53.329 -40.9454 4.58216
5893 16 -53.7676 -51.8697 14.6794
10962 14 -48.4735 -61.9881 35.3136
542 3 -73.2613 -59.4646 4.12963
541 15 -70.3841 -58.4349 6.60917
14494 16 -66.5699 -73.0947 16.6244
5908 8 -65.5698 -57.1815 32.0402
10929 1 -52.4575 -38.7984 0.395006
12067 3 -37.6229 -38.9779 34.3811
1302 8 -44.9333 -47.6529 1.8926
6479 1 -52.8109 -69.4774 1.4448
1327 16 -49.6127 -64.4716 2.08282
1311 16 -47.7302 -51.4593 20.172
2793 16 -45.4444 -40.0239 12.6998
8037 13 -63.9589 -42.0304 11.7137
1305 16 -47.0967 -42.543 8.46958
5901 16 -64.6718 -51.9975 23.4389
2801 16 -42.5982 -51.5396 21.4132
8051 1 -37.6821 -44.3664 27.9299
2084 8 -60.2239 -74.3787 7.40846
5892 8 -51.6061 -52.9977 11.5561
8337 1 -64.9346 -73.6538 30.1126
2096 8 -37.6416 -64.4895 10.6597
1313 16 -48.6385 -58.5245 21.181
1326 12 -53.3654 -64.1203 3.21127
12583 6 -37.6234 -68.1136 31.9257
5906 8 -68.145 -60.9149 29.4495
8029 6 -73.8731 -48.6636 8.9333
2795 14 -40.5678 -44.4865 12.2397
2093 8 -43.6977 -72.2387 12.3791
5898 8 -64.976 -49.7453 15.2904
8438 2 -52.9166 -69.0045 36.1554
2809 8 -47.951 -42.869 32.546
14204 16 -71.7491 -64.3943 36.3269
8027 3 -71.1909 -52.1587 14.7074
2095 14 -41.0223 -66.0496 12.1533
5891 18 -52.0058 -52.9647 7.90981
8034 8 -71.3627 -42.8861 11.1745
996 19 -72.8407 -48.1466 24.3635
5903 14 -66.4242 -56.7252 25.6616
8023 1 -74.2954 -56.6242 12.5839
8048 13 -41.8063 -41.7096 26.0997
5890 8 -54.2622 -55.6972 7.41903
8040 8 -55.5021 -42.5901 11.6747
1322 16 -66.0629 -63.4796 6.11031
5889 10 -55.8518 -55.7529 4.33223
5895 16 -58.2264 -47.859 19.5483
2797 8 -38.0632 -49.393 11.4063
1325 16 -57.2528 -64.5826 2.80948
2796 3 -41.7003 -47.9633 10.6815
8445 2 -42.4703 -68.7496 21.0967
7929 8 -61.0475 -71.5202 25.3466
8444 8 -43.3332 -67.071 24.0593
1320 8 -63.6309 -61.2577 12.0788
8033 13 -74.1463 -41.0502 10.1404
8038 3 -60.7094 -43.4303 10.6457
2808 16 -44.6507 -43.4292 30.7552
1310 8 -51.1604 -49.8595 20.8089
1314 8 -52.2048 -57.691 22.0758
2087 8 -58.4502 -68.1049 9.43517
1306 1 -45.655 -45.4111 10.8462
8039 14 -57.4782 -41.9816 8.79203
534 6 -61.6841 -45.3719 0.377576
14208 13 -71.4753 -74.0621 27.0295
1317 8 -56.897 -56.3281 15.6594
5909 16 -62.3994 -59.5439 32.2745
539 2 -68.3121 -52.2074 5.09945
14493 16 -69.689 -74.8366 17.2472
1300 1 -42.5213 -46.4796 5.84959
5886 8 -60.767 -51.9623 0.73489
535 8 -59.7151 -46.1695 3.88677
12777 1 -73.3553 -38.5545 27.793
7927 15 -56.5001 -71.578 28.1871
8047 1 -40.0264 -40.4692 23.0796
7928 16 -59.467 -73.9387 28.0263
2807 16 -44.8451 -46.9526 32.2168
8439 6 -54.9343 -66.4015 34.2374
536 3 -60.3215 -48.0579 7.23878
1312 8 -48.5056 -54.9384 19.9462
12982 3 -70.9117 -65.0808 1.25835
5910 16 -59.5001 -56.9181 33.1798
14077 14 -69.2673 -39.5488 15.1188
10960 8 -41.3474 -61.9204 35.8838
1307 16 -48.4999 -47.3138 12.3728
2794 8 -42.1397 -40.9687 11.0771
2091 3 -49.4908 -73.8478 11.6643
2088 8 -54.8563 -67.182 10.5346
5914 12 -55.7348 -46.0613 34.007
2092 6 -46.6692 -72.9652 14.221
7935 8 -47.9554 -68.9542 18.4122
14072 8 -59.7047 -44.3035 26.5685
2097 3 -37.9599 -63.4224 6.74189
2104 8 -39.0903 -61.723 1.91325
1309 1 -51.8585 -46.7076 18.6055
1319 14 -63.9519 -57.9003 14.4673
1298 8 -38.428 -42.1867 1.4522
8025 11 -69.9582 -57.5067 16.2138
8441 7 -51.5803 -68.1718 28.6826
8043 16 -51.0864 -40.6502 19.6179
999 16 -67.1006 -44.3678 25.9512
1301 10 -41.1578 -48.0442 2.36342
540 7 -67.9221 -56.1673 4.992
14205 8 -73.1007 -65.6127 32.9907
2806 12 -46.9161 -50.1568 31.6852
8035 8 -70.7433 -45.1185 14.0312
14071 8 -57.7276 -43.5523 29.5109
12776 8 -73.8172 -38.5235 31.4506
1329 8 -44.2599 -60.1663 2.14809
997 16 -70.7807 -46.547 21.9251
6480 1 -49.0994 -70.5646 0.722005
8339 16 -63.6585 -72.3107 35.5026
2803 13 -42.3692 -53.7149 28.7654
5894 1 -55.5922 -49.7816 17.6426
5899 16 -63.5936 -49.8967 18.8949
1328 16 -48.0992 -61.1493 3.04735
5885 16 -57.0061 -50.8388 0.771921
10959 16 -38.328 -61.5308 33.9371
1331 8 -42.3405 -58.2253 9.18717
6488 3 -39.2714 -72.2563 4.55207
14075 8 -63.2102 -41.9459 19.0447
8440 11 -54.2503 -65.9497 30.3998
998 8 -69.3373 -43.0863 23.1199
12980 8 -66.8017 -70.8527 0.0783556
538 6 -67.8169 -49.9535 7.74422
8443 16 -44.6601 -69.6294 26.6775
7938 6 -40.2033 -63.5386 18.5017
8446 14 -43.8838 -72.1828 21.0397
2089 14 -51.5188 -68.6193 12.2676
2792 8 -46.4471 -38.9287 16.3375
12069 16 -40.257 -45.6083 35.4563
1000 3 -65.4815 -42.7532 28.9415
8028 3 -72.6595 -51.4618 11.0434
1308 3 -50.9465 -45.7976 14.6208
5900 8 -62.192 -49.6382 22.3537
10957 7 -41.67 -60.7323 29.226
2090 8 -49.5614 -70.4736 9.68498
1321 16 -64.6432 -63.8755 9.66418
14070 14 -59.2822 -40.2309 30.3632
2800 8 -42.9735 -47.8317 20.1513
7937 13 -44.075 -62.9981 18.0399
7934 6 -50.6343 -72.0771 18.9466
5913 16 -57.0623 -49.0836 35.6377
1315 14 -55.2506 -55.2998 22.7361
5902 8 -68.1628 -53.7479 24.5867
8049 13 -42.0781 -45.1795 24.8462
1304 8 -48.8775 -43.4843 5.37868
2811 8 -52.9542 -42.1573 28.298
2812 13 -54.7213 -41.3568 25.1514
5896 3 -59.9506 -46.6946 16.3673
537 13 -64.2215 -48.3051 8.55483
5888 1 -57.0658 -57.3598 1.05193
10963 8 -48.7793 -58.2554 36.7794
10930 8 -53.7394 -42.1531 1.01513
5907 14 -69.2277 -58.0466 31.9186
8044 10 -48.3788 -41.0505 22.2632
2805 16 -47.2537 -54.0007 32.0091
14495 13 -64.2187 -74.5446 14.2574
2765 14 -46.8738 -38.3911 4.04034
5912 4 -55.6023 -52.3847 37.205
8036 8 -67.1459 -44.2179 12.0865
8041 1 -55.6397 -40.3685 14.2968
7939 2 -37.8199 -61.5603 20.904
1332 13 -43.3903 -56.8403 12.8308
1318 8 -59.8539 -58.0018 13.6766
1330 18 -42.7871 -59.2343 5.7043
8046 15 -42.4062 -42.0953 20.6459
2094 8 -40.9754 -69.6293 11.6322
2804 4 -44.0261 -55.9244 31.7316
1323 13 -64.1443 -61.9426 2.96714
10953 3 -54.82 -62.5571 24.0184
1002 8 -65.5332 -37.8391 33.5606
14206 18 -72.8048 -69.3406 32.0667
5897 1 -63.8066 -46.2865 15.4248
8045 3 -44.912 -39.3167 21.7232
7926 8 -52.7554 -72.9852 28.9446
1001 16 -65.775 -41.7006 32.6681
10955 6 -47.8189 -61.3255 26.2307
2810 18 -51.0314 -40.9419 31.5927
8024 8 -70.6851 -57.9293 12.2939
8338 14 -65.2713 -70.4912 32.4201
2086 15 -59.5979 -68.373 5.6821
5915 16 -52.4271 -47.3426 33.1253
1324 4 -60.6554 -63.4353 1.12487
5883 16 -51.3945 -50.3185 1.96402
5905 8 -70.3646 -61.7377 26.5023
7936 3 -45.6962 -66.235 16.7041
2799 14 -40.7975 -47.9226 17.2069
10954 2 -51.3274 -61.6544 25.1852
1316 3 -56.0962 -56.5151 19.3251
2802 16 -42.5067 -52.7 25.066
7930 3 -60.742 -73.0441 21.5765
10932 8 -55.9518 -38.293 3.92398
10958 2 -38.3372 -60.3856 30.6395
10961 2 -44.898 -61.6228 35.0183
8042 14 -53.6551 -40.3777 17.2514
14073 3 -61.0463 -41.1641 24.7105
14207 8 -71.2818 -71.2318 29.3857
10956 11 -44.8447 -59.442 27.1639
5904 3 -67.7472 -59.7711 24.015
8052 1 -39.49 -47.5486 29.1212
8050 1 -38.3469 -45.2115 24.2449
12584 11 -40.9388 -69.1283 31.8021
6478 8 -56.1818 -71.5267 0.912018
8442 2 -48.3164 -68.7978 27.0886
1299 1 -41.242 -43.1303 4.2147
5882 8 -47.7895 -51.437 2.15284
1303 18 -46.9978 -44.7487 2.16716
8026 8 -69.2446 -54.0681 17.2883
6489 1 -38.0506 -73.0227 8.11307
12585 7 -43.0665 -70.4973 34.6163
2798 8 -38.9534 -50.4245 15.0275
14076 8 -65.653 -40.5531 16.4068
7931 3 -57.1282 -74.5711 22.1415
2085 3 -61.7694 -71.1314 6.25667
5911 13 -58.23 -54.9704 36.0916
5916 16 -50.8917 -46.9683 36.7833
8437 3 -49.5173 -70.5598 36.5519
12068 6 -37.7886 -42.9189 34.6086
14078 8 -68.4863 -37.6771 18.4371
11516 8 -70.9088 -69.9123 57.2048
12588 8 -44.1314 -69.6528 44.168
7882 8 -66.7699 -57.1688 57.2224
1163 16 -69.7587 -70.7649 66.8898
7889 13 -56.3643 -63.3138 69.6588
12586 2 -43.2077 -71.2792 38.4599
12087 6 -72.9722 -44.7423 58.3844
2162 6 -57.9063 -42.6587 67.4936
12079 8 -59.6592 -53.9517 55.9017
14198 16 -59.6909 -62.7061 42.0412
1020 3 -51.0897 -44.8515 46.1701
11527 14 -70.2071 -61.8632 73.1212
7900 13 -59.4496 -74.7813 63.9112
10264 10 -51.1715 -70.6394 63.3903
7890 3 -55.4298 -61.8897 73.413
12074 3 -46.8207 -46.7201 51.1997
1942 8 -39.4001 -60.656 59.1624
7886 8 -58.5911 -57.3663 65.1602
9168 4 -45.4814 -42.0856 55.5629
7898 15 -63.7112 -73.624 67.1903
14142 8 -73.137 -63.084 46.2701
12364 6 -47.0763 -37.6737 71.0056
7377 1 -53.5698 -53.285 68.6079
7892 8 -58.652 -66.0405 73.5567
1022 8 -44.8201 -48.7163 44.5029
1948 8 -45.8499 -66.5757 72.931
7395 16 -52.8741 -40.7884 50.3344
10612 8 -62.6509 -38.5501 51.2127
1930 2 -45.7225 -62.103 41.9978
1018 8 -50.0724 -41.039 41.5799
7875 1 -73.6203 -49.6413 44.6085
8742 14 -57.4025 -74.6234 47.4686
2161 3 -59.515 -40.4273 70.2054
7887 8 -55.0295 -58.9702 64.3852
11521 1 -63.0914 -63.6599 65.3678
10261 1 -43.8678 -74.6354 62.4173
14186 8 -53.3364 -60.7099 60.4285
12084 7 -68.5828 -48.735 49.748
12070 8 -40.8324 -45.8909 39.1066
14184 3 -56.5872 -62.7925 56.4927
7883 16 -64.4754 -55.3277 59.7768
14176 1 -57.8336 -72.7697 54.0353
9167 13 -42.5752 -43.2541 57.899
2186 8 -67.6777 -51.3264 69.8503
14178 8 -57.5209 -66.2516 52.9102
1931 16 -42.4048 -60.9176 43.1091
10260 8 -42.9143 -73.5025 65.6299
12071 15 -41.3494 -43.9381 42.4137
14143 15 -73.9908 -66.7413 46.2719
8884 11 -40.9431 -47.2393 53.5145
14179 18 -60.6784 -65.902 50.7613
14171 16 -69.3607 -74.1004 49.2658
10267 1 -53.5512 -72.3496 71.2756
11522 8 -61.1197 -60.9898 67.3359
2191 18 -74.847 -49.319 67.4771
14185 1 -56.8127 -62.5125 60.2826
7400 13 -66.3241 -41.3852 40.9896
7397 8 -58.4451 -40.7361 45.9203
4880 16 -38.5883 -48.9798 73.9935
7899 1 -62.029 -72.1152 64.1697
14189 16 -47.7903 -53.1216 58.0336
7390 16 -50.3699 -46.2965 60.8758
10266 15 -50.378 -71.2012 69.5899
7379 16 -55.6151 -50.7772 74.3262
8741 2 -58.8809 -74.3952 43.8828
2160 6 -59.2355 -38.2327 73.4829
2163 8 -57.1552 -45.9808 69.715
14138 6 -69.559 -56.1964 40.044
1940 8 -39.6798 -61.5309 53.9704
2189 10 -69.3833 -48.385 62.7783
7386 8 -46.9983 -54.5223 66.4028
14192 3 -49.144 -53.4866 48.0729
7393 16 -54.6398 -38.2619 56.3413
8887 16 -40.0765 -39.2952 48.6896
7396 16 -55.5075 -41.4469 47.9872
7376 3 -50.7778 -53.5195 70.8215
7388 8 -44.5059 -49.5066 61.9479
10607 6 -62.4123 -42.8687 62.9233
2183 16 -61.0436 -54.2219 72.9516
12076 6 -53.0591 -49.7475 50.5496
10603 2 -71.2005 -39.9948 72.0162
2184 3 -61.7178 -50.8578 74.3629
7375 16 -47.7302 -51.1018 70.9829
7885 13 -58.7809 -55.208 61.9605
14183 16 -55.0491 -60.2592 54.4044
8882 2 -41.4282 -52.3845 58.8044
10608 1 -65.344 -42.7397 60.1387
12085 15 -71.042 -46.4787 51.6911
7877 11 -73.9568 -52.2162 50.1064
11517 16 -68.1496 -68.2221 55.5553
1947 14 -42.5958 -65.3608 71.3897
7398 18 -59.5328 -42.3144 42.6014
10965 3 -48.3602 -52.7326 40.6945
14177 10 -56.3248 -69.9512 52.3481
10611 16 -65.5882 -40.1351 53.0097
11518 1 -66.5279 -65.6632 57.4609
12081 13 -62.8004 -47.5355 57.475
14140 6 -66.1777 -61.1308 45.1762
14191 14 -46.4428 -52.8428 50.6721
1941 14 -42.2589 -62.3941 56.5242
7880 3 -70.2452 -57.3684 52.5431
8883 6 -41.5961 -49.4244 56.6004
14173 16 -66.4134 -73.8384 54.3249
14188 8 -50.9682 -55.397 58.8486
8881 3 -38.853 -52.7554 61.3643
1021 8 -48.4622 -47.5635 45.3034
11523 16 -63.9291 -59.0545 68.6428
7895 16 -61.0486 -73.9246 74.6503
14139 3 -67.9624 -59.0176 42.7831
14194 8 -49.7654 -59.666 46.5839
7385 8 -44.885 -55.8523 69.1944
9169 16 -46.3544 -38.4459 55.9869
5920 13 -59.7842 -49.6504 46.9308
7881 6 -67.9376 -55.3438 54.1057
14197 16 -58.668 -59.8609 39.8487
12086 3 -71.6718 -46.6934 55.4711
7384 3 -46.456 -57.4067 72.2521
1946 8 -41.2726 -65.0463 67.6212
14195 14 -53.3551 -60.1914 45.2911
11520 3 -62.0987 -64.0693 61.7629
2164 3 -55.2176 -45.6984 73.1768
10263 16 -48.1209 -72.6478 64.462
12082 6 -66.0847 -47.2649 55.2389
8076 16 -38.2487 -70.4009 60.563
8075 15 -39.9695 -69.1703 57.5715
14182 1 -54.9938 -60.3585 50.7692
10613 3 -59.7001 -39.6852 52.9824
1927 6 -48.1596 -68.1673 48.7521
12590 14 -42.2953 -73.6706 46.9701
12072 16 -43.3484 -43.6018 45.553
14172 3 -69.5245 -72.9605 53.0472
14146 3 -74.7869 -71.9592 40.225
12073 8 -45.8627 -43.945 48.7191
11526 8 -69.9856 -65.146 71.451
14190 8 -48.4267 -52.5765 54.2159
5917 8 -53.7549 -46.0362 38.8907
9160 3 -37.9009 -40.0895 71.6863
1929 7 -48.9402 -64.8103 42.6041
8886 2 -39.4018 -42.3734 50.5841
7897 3 -60.5853 -72.391 69.1572
12077 3 -54.0133 -53.5628 51.6637
14196 8 -55.8822 -59.3687 42.5742
5919 8 -56.6339 -49.8324 45.1708
2188 1 -67.9883 -51.606 64.1195
14181 16 -58.5105 -59.2539 49.2595
14141 16 -69.3337 -62.3781 46.98
8743 8 -53.739 -74.5684 47.1932
7392 4 -52.2571 -41.3356 57.2657
1944 6 -40.7341 -59.109 65.419
12083 2 -65.3105 -48.4144 51.6097
12078 6 -57.9616 -54.098 52.6088
1926 2 -49.8481 -70.952 50.369
7389 16 -47.2551 -48.2748 59.2791
2187 1 -65.5162 -50.9326 66.3874
7373 16 -46.2395 -45.8146 72.0555
1019 14 -48.796 -42.1395 45.0122
14180 8 -60.0789 -62.3067 48.8055
10966 15 -45.104 -51.0396 39.589
10609 14 -67.7916 -40.0715 60.1385
1932 8 -42.1543 -62.6751 46.0576
1925 3 -47.7426 -72.704 53.1986
2185 16 -64.314 -50.2161 71.6276
14201 16 -64.8806 -69.6403 39.9635
7391 13 -53.26 -43.7661 60.6248
8740 8 -56.3851 -74.2598 41.0074
14200 4 -63.5901 -66.7113 42.1282
1945 8 -42.9472 -62.1681 66.0425
7378 8 -56.0912 -50.8543 70.6527
8885 7 -38.3789 -45.8905 51.0701
14137 6 -72.8237 -56.5446 42.0413
7879 3 -73.5669 -58.0063 54.2737
7387 14 -44.3691 -51.9671 64.5819
1024 8 -39.0844 -49.7753 46.6849
2190 8 -72.9162 -49.2662 64.1543
1933 2 -39.1422 -62.3789 48.565
11519 16 -65.463 -62.6706 59.8185
7888 8 -55.8114 -62.1798 66.0913
10604 7 -68.1628 -41.4659 69.5141
7868 8 -73.5631 -40.0945 51.0242
2182 8 -64.2013 -56.2338 73.3506
11525 16 -67.3169 -65.064 68.7467
12080 3 -61.0786 -50.812 58.0504
7374 1 -44.7563 -49.5432 72.4973
10265 3 -52.732 -69.7267 66.8613
12075 3 -50.7149 -46.6588 51.5688
7884 3 -61.3317 -57.1675 59.8648
1928 11 -49.2581 -67.8163 44.9416
14187 16 -53.99 -57.6008 58.3972
11524 8 -67.1031 -61.1506 67.9511
7893 1 -61.814 -68.6427 72.8588
9165 16 -38.4033 -42.8628 63.1834
1943 3 -38.5149 -59.042 62.4724
14193 8 -47.373 -56.7542 47.4547
10967 8 -41.8154 -52.7003 39.0608
14174 8 -63.4165 -73.4639 56.3631
10964 8 -48.2923 -56.5218 39.939
7394 12 -54.2382 -37.8773 52.934
14170 8 -72.5082 -74.342 46.8338
11515 18 -73.587 -68.776 54.8123
14175 1 -61.2945 -72.2131 53.1157
10610 8 -67.5478 -40.5912 56.4721
10968 8 -38.8089 -54.059 40.6954
9166 16 -38.9153 -43.7016 59.202
14202 12 -68.3977 -69.7502 40.661
7399 8 -62.8602 -40.3648 42.4211
1023 14 -42.586 -51.2093 46.0521