#LAMMPS data file

148 atoms
147 bonds

20 atom types
1 bond types

-300 300 xlo xhi
-300 300 ylo yhi
-300 300 zlo zhi

Atoms

  1 1  3 0.0 38.469000 27.016000 29.922000
  2 1  2 1.0 39.031000 23.984000 27.516000
  3 1  6 0.0 39.000000 25.500000 24.062000
  4 1 11 0.0 42.688000 26.359000 23.578000
  5 1  7 -1.0 44.750000 23.094000 23.312000
  6 1  2 1.0 43.969000 21.359000 20.094000
  7 1 16 0.0 46.781000 22.312000 18.297000
  8 1  8 0.0 48.281000 24.672000 16.062000
  9 1  2 1.0 50.875000 22.188000 15.102000
 10 1 14 0.0 51.562000 20.469000 11.938000
 11 1  8 0.0 51.438000 20.406000 8.375000
 12 1  8 0.0 51.281000 22.156000 5.148000
 13 1  3 0.0 50.312000 24.453000 2.652000
 14 1 15 0.0 50.062000 28.297000 2.312000
 15 1  8 0.0 50.250000 28.641000 -1.372000
 16 1  8 0.0 48.562000 28.688000 -4.477000
 17 1 14 0.0 46.375000 30.922000 -6.570000
 18 1  8 0.0 45.438000 29.281000 -9.828000
 19 1  3 0.0 43.281000 27.328000 -11.953000
 20 1  6 0.0 39.969000 28.375000 -13.391000
 21 1  8 0.0 38.531000 25.812000 -15.719000
 22 1  8 0.0 35.375000 24.469000 -16.672000
 23 1 14 0.0 31.734000 23.484000 -16.297000
 24 1  8 0.0 30.984000 20.594000 -18.781000
 25 1  3 0.0 31.406000 17.047000 -19.969000
 26 1 16 0.0 29.953000 13.734000 -19.969000
 27 1  2 1.0 26.359000 12.812000 -19.891000
 28 1  8 0.0 26.453000 10.266000 -22.484000
 29 1  8 0.0 26.891000 6.754000 -23.406000
 30 1  8 0.0 24.703000 3.721000 -23.219000
 31 1  1 0.0 24.016000 0.109000 -22.328000
 32 1  8 0.0 25.109000 -3.148000 -20.984000
 33 1 11 0.0 23.156000 -5.828000 -19.188000
 34 1  8 0.0 24.969000 -8.484000 -17.281000
 35 1  3 0.0 25.062000 -10.352000 -14.180000
 36 1  3 0.0 24.406000 -10.266000 -10.656000
 37 1  6 0.0 21.891000 -13.133000 -10.672000
 38 1  8 0.0 23.250000 -15.031000 -7.809000
 39 1 16 0.0 22.609000 -14.078000 -4.270000
 40 1  3 0.0 19.578000 -15.641000 -2.699000
 41 1 13 0.0 17.641000 -13.328000 -0.529000
 42 1  8 0.0 15.305000 -10.555000 -1.294000
 43 1  8 0.0 14.781000 -8.922000 -4.668000
 44 1  8 0.0 11.672000 -6.879000 -4.551000
 45 1 13 0.0 8.797000 -8.102000 -6.633000
 46 1  3 0.0 9.641000 -6.453000 -10.070000
 47 1 14 0.0 6.449000 -4.227000 -10.578000
 48 1  8 0.0 8.016000 -3.443000 -13.961000
 49 1  1 0.0 6.758000 -6.688000 -15.578000
 50 1 14 0.0 3.061000 -5.938000 -14.977000
 51 1 16 0.0 2.150000 -2.477000 -16.234000
 52 1 10 0.0 0.612000 -2.303000 -12.781000
 53 1  3 0.0 -0.194000 1.506000 -12.375000
 54 1 15 0.0 1.711000 2.740000 -9.211000
 55 1  1 0.0 -1.494000 4.531000 -8.352000
 56 1 13 0.0 -3.311000 1.433000 -7.395000
 57 1 13 0.0 -0.556000 0.143000 -5.293000
 58 1  1 0.0 -0.517000 3.416000 -3.406000
 59 1  1 0.0 -4.219000 3.002000 -2.484000
 60 1  1 0.0 -3.527000 -0.310000 -0.650000
 61 1  6 0.0 -1.065000 1.595000 1.541000
 62 1  1 0.0 -3.506000 4.363000 2.436000
 63 1  1 0.0 -6.191000 1.966000 3.863000
 64 1 11 0.0 -3.764000 0.343000 6.395000
 65 1  6 0.0 -2.949000 3.834000 7.965000
 66 1 16 0.0 -6.723000 4.414000 8.336000
 67 1 16 0.0 -7.059000 1.520000 10.820000
 68 1 18 0.0 -5.793000 3.355000 13.930000
 69 1  8 0.0 -8.039000 6.383000 13.781000
 70 1 13 0.0 -11.484000 4.914000 13.117000
 71 1 13 0.0 -11.180000 2.279000 15.852000
 72 1  8 0.0 -10.188000 5.000000 18.281000
 73 1 13 0.0 -13.258000 7.160000 17.734000
 74 1 11 0.0 -15.461000 4.375000 19.000000
 75 1  1 0.0 -13.438000 4.172000 22.266000
 76 1 16 0.0 -14.039000 7.953000 22.594000
 77 1  6 0.0 -17.812000 7.316000 22.000000
 78 1  6 0.0 -18.141000 4.766000 24.812000
 79 1  3 0.0 -17.484000 7.672000 27.203000
 80 1  6 0.0 -20.109000 10.102000 26.078000
 81 1 16 0.0 -23.312000 9.227000 27.703000
 82 1  8 0.0 -24.672000 12.672000 27.734000
 83 1 15 0.0 -24.906000 16.422000 26.469000
 84 1 16 0.0 -21.312000 18.094000 25.969000
 85 1  8 0.0 -21.156000 20.250000 29.078000
 86 1  3 0.0 -17.953000 22.016000 29.922000
 87 1  3 0.0 -14.375000 21.781000 31.219000
 88 1  6 0.0 -11.617000 20.000000 32.844000
 89 1  3 0.0 -8.008000 19.828000 32.625000
 90 1  6 0.0 -5.477000 17.328000 31.312000
 91 1  8 0.0 -3.369000 16.594000 34.312000
 92 1  3 0.0 -2.912000 13.812000 36.594000
 93 1 13 0.0 -2.207000 10.039000 35.844000
 94 1  6 0.0 -1.487000 9.359000 39.625000
 95 1  2 1.0 -1.621000 5.488000 40.219000
 96 1  7 -1.0 -2.605000 4.664000 43.688000
 97 1 15 0.0 -3.807000 1.126000 45.125000
 98 1  3 0.0 -6.379000 0.435000 47.781000
 99 1  6 0.0 -9.461000 -0.917000 49.031000
100 1  1 0.0 -12.836000 -1.385000 50.062000
101 1 14 0.0 -15.961000 -3.188000 50.625000
102 1  8 0.0 -19.000000 -5.078000 49.938000
103 1 16 0.0 -22.062000 -6.391000 48.375000
104 1  8 0.0 -23.656000 -9.578000 47.969000
105 1  3 0.0 -24.875000 -12.742000 46.375000
106 1  3 0.0 -27.422000 -14.273000 44.000000
107 1 16 0.0 -27.609000 -17.781000 43.219000
108 1 19 0.0 -27.906000 -20.500000 40.594000
109 1 16 0.0 -30.156000 -21.078000 37.562000
110 1  8 0.0 -29.312000 -23.656000 35.094000
111 1 16 0.0 -29.406000 -24.000000 31.422000
112 1  3 0.0 -27.344000 -26.156000 29.328000
113 1 16 0.0 -23.938000 -27.125000 28.297000
114 1  8 0.0 -24.141000 -27.188000 24.578000
115 1  1 0.0 -21.109000 -27.391000 22.609000
116 1  1 0.0 -19.109000 -25.859000 20.031000
117 1 10 0.0 -15.695000 -24.422000 20.594000
118 1  8 0.0 -14.930000 -25.094000 16.797000
119 1 18 0.0 -15.688000 -23.641000 13.188000
120 1  8 0.0 -19.031000 -25.328000 12.531000
121 1 16 0.0 -22.047000 -24.297000 14.680000
122 1  1 0.0 -24.828000 -25.719000 12.328000
123 1 16 0.0 -27.844000 -23.922000 13.672000
124 1  3 0.0 -30.594000 -26.453000 13.148000
125 1  1 0.0 -33.375000 -24.156000 11.898000
126 1  8 0.0 -35.562000 -25.922000 9.672000
127 1 16 0.0 -36.562000 -27.812000 6.656000
128 1  8 0.0 -36.031000 -28.875000 3.213000
129 1 16 0.0 -34.094000 -30.375000 0.533000
130 1  8 0.0 -31.328000 -32.750000 -0.060000
131 1 14 0.0 -28.141000 -32.938000 -2.037000
132 1  3 0.0 -28.797000 -32.281000 -5.832000
133 1  8 0.0 -26.188000 -34.781000 -7.137000
134 1  8 0.0 -26.562000 -34.812000 -10.812000
135 1 14 0.0 -23.891000 -35.312000 -13.570000
136 1  8 0.0 -26.281000 -34.906000 -16.406000
137 1 16 0.0 -24.984000 -34.531000 -20.016000
138 1 16 0.0 -25.859000 -31.625000 -22.188000
139 1 13 0.0 -22.828000 -31.781000 -24.562000
140 1  4 -1.0 -25.000000 -31.641000 -27.594000
141 1 16 0.0 -24.172000 -28.406000 -29.391000
142 1 12 1.0 -22.375000 -29.656000 -32.594000
143 1 16 0.0 -22.500000 -26.891000 -35.031000
144 1 16 0.0 -20.109000 -25.719000 -37.406000
145 1  8 0.0 -17.281000 -26.250000 -39.500000
146 1 18 0.0 -13.562000 -27.203000 -39.938000
147 1  8 0.0 -12.984000 -25.469000 -43.219000
148 1 13 0.0 -10.062000 -23.109000 -44.031000

Bonds

1 1 1 2
2 1 2 3
3 1 3 4
4 1 4 5
5 1 5 6
6 1 6 7
7 1 7 8
8 1 8 9
9 1 9 10
10 1 10 11
11 1 11 12
12 1 12 13
13 1 13 14
14 1 14 15
15 1 15 16
16 1 16 17
17 1 17 18
18 1 18 19
19 1 19 20
20 1 20 21
21 1 21 22
22 1 22 23
23 1 23 24
24 1 24 25
25 1 25 26
26 1 26 27
27 1 27 28
28 1 28 29
29 1 29 30
30 1 30 31
31 1 31 32
32 1 32 33
33 1 33 34
34 1 34 35
35 1 35 36
36 1 36 37
37 1 37 38
38 1 38 39
39 1 39 40
40 1 40 41
41 1 41 42
42 1 42 43
43 1 43 44
44 1 44 45
45 1 45 46
46 1 46 47
47 1 47 48
48 1 48 49
49 1 49 50
50 1 50 51
51 1 51 52
52 1 52 53
53 1 53 54
54 1 54 55
55 1 55 56
56 1 56 57
57 1 57 58
58 1 58 59
59 1 59 60
60 1 60 61
61 1 61 62
62 1 62 63
63 1 63 64
64 1 64 65
65 1 65 66
66 1 66 67
67 1 67 68
68 1 68 69
69 1 69 70
70 1 70 71
71 1 71 72
72 1 72 73
73 1 73 74
74 1 74 75
75 1 75 76
76 1 76 77
77 1 77 78
78 1 78 79
79 1 79 80
80 1 80 81
81 1 81 82
82 1 82 83
83 1 83 84
84 1 84 85
85 1 85 86
86 1 86 87
87 1 87 88
88 1 88 89
89 1 89 90
90 1 90 91
91 1 91 92
92 1 92 93
93 1 93 94
94 1 94 95
95 1 95 96
96 1 96 97
97 1 97 98
98 1 98 99
99 1 99 100
100 1 100 101
101 1 101 102
102 1 102 103
103 1 103 104
104 1 104 105
105 1 105 106
106 1 106 107
107 1 107 108
108 1 108 109
109 1 109 110
110 1 110 111
111 1 111 112
112 1 112 113
113 1 113 114
114 1 114 115
115 1 115 116
116 1 116 117
117 1 117 118
118 1 118 119
119 1 119 120
120 1 120 121
121 1 121 122
122 1 122 123
123 1 123 124
124 1 124 125
125 1 125 126
126 1 126 127
127 1 127 128
128 1 128 129
129 1 129 130
130 1 130 131
131 1 131 132
132 1 132 133
133 1 133 134
134 1 134 135
135 1 135 136
136 1 136 137
137 1 137 138
138 1 138 139
139 1 139 140
140 1 140 141
141 1 141 142
142 1 142 143
143 1 143 144
144 1 144 145
145 1 145 146
146 1 146 147
147 1 147 148
